# wallShearStress  POINT_DATA 282
# x  y  z  wallShearStress_x  wallShearStress_y  wallShearStress_z
0 0 -0.1 -0.00213440899709293 -1.66574358317387e-07 0
0.0909636751438571 0 -0.1 -0.00213440899709293 -1.66574358317387e-07 0
0.0909636751438571 0 0.1 -0.00213440899709293 -1.66574358317387e-07 0
0 0 0.1 -0.00213440899709293 -1.66574358317387e-07 0
0.18192733736627 0 -0.1 -0.00213376484115754 -4.14797153723974e-07 0
0.18192733736627 0 0.1 -0.00213376484115754 -4.14797153723974e-07 0
0.272891009528782 0 -0.1 -0.00212428312307192 -4.70619925883154e-07 0
0.272891009528782 0 0.1 -0.00212428312307192 -4.70619925883154e-07 0
0.363854679371709 0 -0.1 -0.00211415874995299 -4.15063017842441e-07 0
0.363854679371709 0 0.1 -0.00211415874995299 -4.15063017842441e-07 0
0.454818343500592 0 -0.1 -0.00210386033596336 -4.55443421809727e-07 0
0.454818343500592 0 0.1 -0.00210386033596336 -4.55443421809727e-07 0
0.545782021738178 0 -0.1 -0.00209194755302782 -5.0729326135028e-07 0
0.545782021738178 0 0.1 -0.00209194755302782 -5.0729326135028e-07 0
0.636745691570117 0 -0.1 -0.00207847283857187 -5.48062233303156e-07 0
0.636745691570117 0 0.1 -0.00207847283857187 -5.48062233303156e-07 0
0.727709342839101 0 -0.1 -0.00206342877948749 -5.94245366547782e-07 1.53019847982275e-23
0.727709342839101 0 0.1 -0.00206342877948749 -5.94245366547782e-07 1.53019847982275e-23
0.818673038605569 0 -0.1 -0.00204655853517142 -6.47290480762807e-07 -1.53200393042803e-23
0.818673038605569 0 0.1 -0.00204655853517142 -6.47290480762807e-07 -1.53200393042803e-23
0.909636712766803 0 -0.1 -0.0020275973342347 -7.06166836784352e-07 0
0.909636712766803 0 0.1 -0.0020275973342347 -7.06166836784352e-07 0
1.00060036624564 0 -0.1 -0.00200624781124251 -7.72330101827946e-07 0
1.00060036624564 0 0.1 -0.00200624781124251 -7.72330101827946e-07 0
1.09156401904875 0 -0.1 -0.00198214526129189 -8.47293305117874e-07 0
1.09156401904875 0 0.1 -0.00198214526129189 -8.47293305117874e-07 0
1.18252775534641 0 -0.1 -0.00195485442133105 -9.32620507102421e-07 0
1.18252775534641 0 0.1 -0.00195485442133105 -9.32620507102421e-07 0
1.27349134704964 0 -0.1 -0.00192385679388168 -1.0304104956023e-06 0
1.27349134704964 0 0.1 -0.00192385679388168 -1.0304104956023e-06 0
1.36445582954698 0 -0.1 -0.00188852587258438 -1.14348862669452e-06 0
1.36445582954698 0 0.1 -0.00188852587258438 -1.14348862669452e-06 0
1.4554186948832 0 -0.1 -0.00184810173640272 -1.27568353261804e-06 0
1.4554186948832 0 0.1 -0.00184810173640272 -1.27568353261804e-06 0
1.54638241090994 0 -0.1 -0.00180163807820329 -1.43251473311517e-06 0
1.54638241090994 0 0.1 -0.00180163807820329 -1.43251473311517e-06 0
1.63734598647802 0 -0.1 -0.00174796348245792 -1.62238756806881e-06 0
1.63734598647802 0 0.1 -0.00174796348245792 -1.62238756806881e-06 0
1.72830975611027 0 -0.1 -0.00168549096104171 -1.85768139281214e-06 0
1.72830975611027 0 0.1 -0.00168549096104171 -1.85768139281214e-06 0
1.81927341491484 0 -0.1 -0.00161236654499086 -2.17337003508471e-06 0
1.81927341491484 0 0.1 -0.00161236654499086 -2.17337003508471e-06 0
1.91023695466813 -2.04674768828585e-08 -0.1 -0.00152465408948381 -2.6313653483162e-06 -3.98612500528139e-23
1.91023695466813 -2.04674768828585e-08 0.1 -0.00152465408948381 -2.6313653483162e-06 -3.98612500528139e-23
2.00120023072353 6.41484828827261e-05 -0.1 -0.00141909582278636 -3.82081460712648e-06 -6.13939335194844e-22
2.00120023072353 6.41484828827261e-05 0.1 -0.00141909582278636 -3.82081460712648e-06 -6.13939335194844e-22
2.09216366129157 0.000400090050384716 -0.1 -0.00131958757458152 -7.0284993084475e-06 1.37399579756687e-21
2.09216366129157 0.000400090050384716 0.1 -0.00131958757458152 -7.0284993084475e-06 1.37399579756687e-21
2.18312349659276 0.00122467848160579 -0.1 -0.00124647114279816 -1.30743816387169e-05 -3.67341984631965e-40
2.18312349659276 0.00122467848160579 0.1 -0.00124647114279816 -1.30743816387169e-05 -3.67341984631965e-40
2.2740739627699 0.00275500470871561 -0.1 -0.00120006650048437 -2.19736865303294e-05 1.1964910332795e-20
2.2740739627699 0.00275500470871561 0.1 -0.00120006650048437 -2.19736865303294e-05 1.1964910332795e-20
2.36500417758108 0.00520100194916539 -0.1 -0.00118004234971963 -3.37550489651388e-05 1.26482763950717e-20
2.36500417758108 0.00520100194916539 0.1 -0.00118004234971963 -3.37550489651388e-05 1.26482763950717e-20
2.45589715054984 0.00877128540062246 -0.1 -0.00118395228250552 -4.88446116416237e-05 -2.59555904643906e-20
2.45589715054984 0.00877128540062246 0.1 -0.00118395228250552 -4.88446116416237e-05 -2.59555904643906e-20
2.54672719957895 0.0136798031317338 -0.1 -0.00121821096585513 -6.82918720699817e-05 2.65448649162221e-20
2.54672719957895 0.0136798031317338 0.1 -0.00121821096585513 -6.82918720699817e-05 2.65448649162221e-20
2.63746367376754 0.0200872780792634 -0.1 -0.00127397811571744 -9.27376199142744e-05 -2.11966712999104e-24
2.63746367376754 0.0200872780792634 0.1 -0.00127397811571744 -9.27376199142744e-05 -2.11966712999104e-24
2.7280621278179 0.0282146434470552 -0.1 -0.00135741625233943 -0.000123947922399429 1.0656781293968e-22
2.7280621278179 0.0282146434470552 0.1 -0.00135741625233943 -0.000123947922399429 1.0656781293968e-22
2.81847495526168 0.0381938252668674 -0.1 -0.00146919254318194 -0.0001634830143019 -3.58158435016166e-39
2.81847495526168 0.0381938252668674 0.1 -0.00146919254318194 -0.0001634830143019 -3.58158435016166e-39
2.90864571887622 0.0501615154711356 -0.1 -0.00160083681053441 -0.000212145524318108 -9.92989142207378e-23
2.90864571887622 0.0501615154711356 0.1 -0.00160083681053441 -0.000212145524318108 -9.92989142207378e-23
2.9985079688952 0.0642610057572933 -0.1 -0.00175973228775734 -0.000272614877442362 -1.08821805353718e-19
2.9985079688952 0.0642610057572933 0.1 -0.00175973228775734 -0.000272614877442362 -1.08821805353718e-19
3.08799128619518 0.0805900897482846 -0.1 -0.00194930060419491 -0.000347465301244087 1.98248830552489e-23
3.08799128619518 0.0805900897482846 0.1 -0.00194930060419491 -0.000347465301244087 1.98248830552489e-23
3.17702996981403 0.0991954104242989 -0.1 -0.00216940913225386 -0.00043842120110182 -1.02805302635774e-19
3.17702996981403 0.0991954104242989 0.1 -0.00216940913225386 -0.00043842120110182 -1.02805302635774e-19
3.26555469607011 0.120105269380497 -0.1 -0.00241040063681974 -0.000545863873516638 -9.76728028211964e-20
3.26555469607011 0.120105269380497 0.1 -0.00241040063681974 -0.000545863873516638 -9.76728028211964e-20
3.35348798379967 0.143379787501145 -0.1 -0.00270266522484976 -0.000678517688327672 1.82211723331443e-19
3.35348798379967 0.143379787501145 0.1 -0.00270266522484976 -0.000678517688327672 1.82211723331443e-19
3.44079517355939 0.168902205785925 -0.1 -0.00302194193523177 -0.000831434396113056 -1.64812173842921e-19
3.44079517355939 0.168902205785925 0.1 -0.00302194193523177 -0.000831434396113056 -1.64812173842921e-19
3.52740493331834 0.1966998959753 -0.1 -0.00339984699422796 -0.00101708011918069 1.43385673344565e-19
3.52740493331834 0.1966998959753 0.1 -0.00339984699422796 -0.00101708011918069 1.43385673344565e-19
3.61330754666002 0.226607228075266 -0.1 -0.0038270693944563 -0.00123152089988415 -2.45398401693226e-22
3.61330754666002 0.226607228075266 0.1 -0.0038270693944563 -0.00123152089988415 -2.45398401693226e-22
3.69846552034839 0.258583100792397 -0.1 -0.00436767384174129 -0.0014991140411776 -1.45449078550206e-23
3.69846552034839 0.258583100792397 0.1 -0.00436767384174129 -0.0014991140411776 -1.45449078550206e-23
3.78300577983888 0.292153425566022 -0.1 -0.00497751143226835 -0.00179208418453775 1.45952084090771e-23
3.78300577983888 0.292153425566022 0.1 -0.00497751143226835 -0.00179208418453775 1.45952084090771e-23
3.86701674102792 0.327034242027963 -0.1 -0.00566234281343179 -0.00211604475736621 -3.03624203817141e-24
3.86701674102792 0.327034242027963 0.1 -0.00566234281343179 -0.00211604475736621 -3.03624203817141e-24
3.950704700612 0.362679590303794 -0.1 -0.00643645842155403 -0.00245169150312123 3.02542273099103e-24
3.950704700612 0.362679590303794 0.1 -0.00643645842155403 -0.00245169150312123 3.02542273099103e-24
4.03431667572938 0.398506404806631 -0.1 -0.00724118099024391 -0.00276507684623173 7.3468396926393e-40
4.03431667572938 0.398506404806631 0.1 -0.00724118099024391 -0.00276507684623173 7.3468396926393e-40
4.11809068507818 0.433946897924469 -0.1 -0.00805084551609923 -0.00303072379214139 5.51578665016077e-22
4.11809068507818 0.433946897924469 0.1 -0.00805084551609923 -0.00303072379214139 5.51578665016077e-22
4.20225804382716 0.468447433140581 -0.1 -0.00886592635464209 -0.00323239716206558 5.10386182843155e-23
4.20225804382716 0.468447433140581 0.1 -0.00886592635464209 -0.00323239716206558 5.10386182843155e-23
4.28704145654655 0.501401594351154 -0.1 -0.00962199368414526 -0.00333154602898609 4.78911483139051e-19
4.28704145654655 0.501401594351154 0.1 -0.00962199368414526 -0.00333154602898609 4.78911483139051e-19
4.37260467478565 0.532272285538912 -0.1 -0.0102723928608801 -0.00331255903529277 -1.61800036526015e-22
4.37260467478565 0.532272285538912 0.1 -0.0102723928608801 -0.00331255903529277 -1.61800036526015e-22
4.45907501580153 0.560487259482185 -0.1 -0.0107356681329697 -0.00314819786942013 3.55344373451526e-22
4.45907501580153 0.560487259482185 0.1 -0.0107356681329697 -0.00314819786942013 3.55344373451526e-22
4.54649892964638 0.585608614124542 -0.1 -0.0109156527526997 -0.00284205539740069 -1.94119726116645e-22
4.54649892964638 0.585608614124542 0.1 -0.0109156527526997 -0.00284205539740069 -1.94119726116645e-22
4.63482240663069 0.607347407112665 -0.1 -0.0108459371708265 -0.00244038176497637 -4.83833374898908e-19
4.63482240663069 0.607347407112665 0.1 -0.0108459371708265 -0.00244038176497637 -4.83833374898908e-19
4.72395954736931 0.625447061905342 -0.1 -0.0104521489894243 -0.00196345116726872 -5.33863261263421e-19
4.72395954736931 0.625447061905342 0.1 -0.0104521489894243 -0.00196345116726872 -5.33863261263421e-19
4.81375019346835 0.639963852842719 -0.1 -0.00981087640630826 -0.00148740547635775 -5.72137349766241e-19
4.81375019346835 0.639963852842719 0.1 -0.00981087640630826 -0.00148740547635775 -5.72137349766241e-19
4.90403049342174 0.651057739749821 -0.1 -0.00907138461821875 -0.00105844662375974 2.31641200392132e-22
4.90403049342174 0.651057739749821 0.1 -0.00907138461821875 -0.00105844662375974 2.31641200392132e-22
4.99463674459644 0.65903862257216 -0.1 -0.00837314829969746 -0.000706317865905407 0
4.99463674459644 0.65903862257216 0.1 -0.00837314829969746 -0.000706317865905407 0
5.08545493195489 0.664110935746656 -0.1 -0.00774831740075072 -0.000416242361175793 -1.56572043899228e-19
5.08545493195489 0.664110935746656 0.1 -0.00774831740075072 -0.000416242361175793 -1.56572043899228e-19
5.17638632641094 0.666458174886135 -0.1 -0.00712759644179355 -0.000176699778285958 3.06951527512397e-22
5.17638632641094 0.666458174886135 0.1 -0.00712759644179355 -0.000176699778285958 3.06951527512397e-22
5.2673470643963 0.666271158839223 -0.1 -0.00653053661923588 1.69588644101991e-05 9.74741857045859e-21
5.2673470643963 0.666271158839223 0.1 -0.00653053661923588 1.69588644101991e-05 9.74741857045859e-21
5.35827123891602 0.663712601239271 -0.1 -0.00596341221943259 0.000171103919747608 7.68834639338328e-20
5.35827123891602 0.663712601239271 0.1 -0.00596341221943259 0.000171103919747608 7.68834639338328e-20
5.44910614915906 0.658928415300375 -0.1 -0.00540668115259609 0.000290321110499844 -1.50635525248613e-19
5.44910614915906 0.658928415300375 0.1 -0.00540668115259609 0.000290321110499844 -1.50635525248613e-19
5.5398086652193 0.652063103960344 -0.1 -0.00485718564476143 0.000377555686919314 1.45213058212731e-22
5.5398086652193 0.652063103960344 0.1 -0.00485718564476143 0.000377555686919314 1.45213058212731e-22
5.63034321905349 0.64325358693756 -0.1 -0.00432720078087676 0.000436632491337189 -4.70197740328915e-38
5.63034321905349 0.64325358693756 0.1 -0.00432720078087676 0.000436632491337189 -4.70197740328915e-38
5.72068053592292 0.632612914542793 -0.1 -0.00379256187745999 0.000468878834586648 2.71362281953794e-19
5.72068053592292 0.632612914542793 0.1 -0.00379256187745999 0.000468878834586648 2.71362281953794e-19
5.81080523787507 0.620294746417263 -0.1 -0.00328544007464378 0.00047869017955818 -5.17874529354015e-19
5.81080523787507 0.620294746417263 0.1 -0.00328544007464378 0.00047869017955818 -5.17874529354015e-19
5.90069611531568 0.606372334804926 -0.1 -0.00278844207921185 0.000468347996648734 -4.92279138687114e-19
5.90069611531568 0.606372334804926 0.1 -0.00278844207921185 0.000468347996648734 -4.92279138687114e-19
5.99034218207487 0.590952803300592 -0.1 -0.00229048214275786 0.000438137164817059 -4.651320988909e-19
5.99034218207487 0.590952803300592 0.1 -0.00229048214275786 0.000438137164817059 -4.651320988909e-19
6.07973709052103 0.57413633561354 -0.1 -0.00179596935778441 0.00038965982950239 4.37675069568646e-19
6.07973709052103 0.57413633561354 0.1 -0.00179596935778441 0.00038965982950239 4.37675069568646e-19
6.16889035448397 0.556082194953895 -0.1 -0.00135972238900861 0.000333967303155562 -4.0932943162715e-19
6.16889035448397 0.556082194953895 0.1 -0.00135972238900861 0.000333967303155562 -4.0932943162715e-19
6.25779182098582 0.536825653462535 -0.1 -0.000935064037483975 0.000266162275690731 3.81928041156813e-19
6.25779182098582 0.536825653462535 0.1 -0.000935064037483975 0.000266162275690731 3.81928041156813e-19
6.34646648120255 0.516549652258669 -0.1 -0.000554313520127429 0.000195913356462057 3.53909336564822e-19
6.34646648120255 0.516549652258669 0.1 -0.000554313520127429 0.000195913356462057 3.53909336564822e-19
6.43492028259061 0.495330269289822 -0.1 -0.00021476008190582 0.000123309026972677 3.28211781735482e-19
6.43492028259061 0.495330269289822 0.1 -0.00021476008190582 0.000123309026972677 3.28211781735482e-19
6.52320176220624 0.473404937340779 -0.1 5.34428685507156e-05 6.0893441159085e-05 9.4039548065783e-38
6.52320176220624 0.473404937340779 0.1 5.34428685507156e-05 6.0893441159085e-05 9.4039548065783e-38
6.6113162376723 0.450817426692717 -0.1 0.000266477013913005 4.41643543889364e-06 1.2883892479952e-22
6.6113162376723 0.450817426692717 0.1 0.000266477013913005 4.41643543889364e-06 1.2883892479952e-22
6.69931232031287 0.427772544803779 -0.1 0.000440977335232564 -4.32953073813854e-05 -1.28332329079288e-22
6.69931232031287 0.427772544803779 0.1 0.000440977335232564 -4.32953073813854e-05 -1.28332329079288e-22
6.78721513305553 0.40437423860206 -0.1 0.000563281225390529 -8.06587877093631e-05 -4.5835819935033e-19
6.78721513305553 0.40437423860206 0.1 0.000563281225390529 -8.06587877093631e-05 -4.5835819935033e-19
6.87506889401336 0.380792366780611 -0.1 0.000646224488536969 -0.000106950349139928 -4.17484191489863e-19
6.87506889401336 0.380792366780611 0.1 0.000646224488536969 -0.000106950349139928 -4.17484191489863e-19
6.96288327821972 0.357064290677006 -0.1 0.00070051396132015 -0.000126960783600746 -1.88079096131566e-37
6.96288327821972 0.357064290677006 0.1 0.00070051396132015 -0.000126960783600746 -1.88079096131566e-37
7.05070916806502 0.333378586874109 -0.1 0.000747074933548995 -0.000142229700356743 0
7.05070916806502 0.333378586874109 0.1 0.000747074933548995 -0.000142229700356743 0
7.13858270643516 0.309871148330989 -0.1 0.000752707294133427 -0.000145962888888221 3.16483583964622e-19
7.13858270643516 0.309871148330989 0.1 0.000752707294133427 -0.000145962888888221 3.16483583964622e-19
7.22650956782315 0.286562734815648 -0.1 0.000757761477602441 -0.000149482329997453 1.29440736523388e-23
7.22650956782315 0.286562734815648 0.1 0.000757761477602441 -0.000149482329997453 1.29440736523388e-23
7.31453554797824 0.26363319224491 -0.1 0.000752694002270356 -0.000147809082662178 2.62606805888418e-19
7.31453554797824 0.26363319224491 0.1 0.000752694002270356 -0.000147809082662178 2.62606805888418e-19
7.40268047734764 0.241164476954718 -0.1 0.000735476350642023 -0.000142824555203666 0
7.40268047734764 0.241164476954718 0.1 0.000735476350642023 -0.000142824555203666 0
7.49096737892101 0.219260242081702 -0.1 0.000711241902736796 -0.000134924679478879 0
7.49096737892101 0.219260242081702 0.1 0.000711241902736796 -0.000134924679478879 0
7.57940703394937 0.19798402297243 -0.1 0.000685086368446658 -0.000126514929229823 -9.02892538103197e-23
7.57940703394937 0.19798402297243 0.1 0.000685086368446658 -0.000126514929229823 -9.02892538103197e-23
7.66803461604768 0.177502576079028 -0.1 0.000649317005321643 -0.000114473164973308 -1.74790740321618e-19
7.66803461604768 0.177502576079028 0.1 0.000649317005321643 -0.000114473164973308 -1.74790740321618e-19
7.75684061335401 0.157807216143346 -0.1 0.000606327363057415 -0.000102035628009767 -7.82054653100061e-20
7.75684061335401 0.157807216143346 0.1 0.000606327363057415 -0.000102035628009767 -7.82054653100061e-20
7.84583957837757 0.139014948215749 -0.1 0.000565658357143342 -8.96254776273778e-05 1.05147561188289e-22
7.84583957837757 0.139014948215749 0.1 0.000565658357143342 -8.96254776273778e-05 1.05147561188289e-22
7.93504385788428 0.121211874854276 -0.1 0.000511427260348464 -7.49730607430547e-05 6.078406907039e-20
7.93504385788428 0.121211874854276 0.1 0.000511427260348464 -7.49730607430547e-05 6.078406907039e-20
8.02444276755706 0.104423254124755 -0.1 0.000458387739055416 -6.1750403984188e-05 -5.87747175411144e-39
8.02444276755706 0.104423254124755 0.1 0.000458387739055416 -6.1750403984188e-05 -5.87747175411144e-39
8.11405354688918 0.0887904610807042 -0.1 0.000395145801611207 -4.70249633168381e-05 4.52202161241511e-20
8.11405354688918 0.0887904610807042 0.1 0.000395145801611207 -4.70249633168381e-05 4.52202161241511e-20
8.20385444055487 0.0742964296731442 -0.1 0.000324432153053763 -3.32015529807022e-05 5.87747175411144e-39
8.20385444055487 0.0742964296731442 0.1 0.000324432153053763 -3.32015529807022e-05 5.87747175411144e-39
8.2938422452272 0.0610129634726357 -0.1 0.000250075294971072 -2.01223658004264e-05 3.11145190254147e-20
8.2938422452272 0.0610129634726357 0.1 0.000250075294971072 -2.01223658004264e-05 3.11145190254147e-20
8.38400859151562 0.0489868917315897 -0.1 0.000165246619752878 -7.67597389428578e-06 2.72875797089833e-23
8.38400859151562 0.0489868917315897 0.1 0.000165246619752878 -7.67597389428578e-06 2.72875797089833e-23
8.47433617950773 0.0382543558783122 -0.1 7.3256033390422e-05 3.36801710131373e-06 -9.23104851470564e-21
8.47433617950773 0.0382543558783122 0.1 7.3256033390422e-05 3.36801710131373e-06 -9.23104851470564e-21
8.56481176217266 0.0288539277421015 -0.1 -2.85718814811666e-05 1.28924710730853e-05 -2.93873587705572e-39
8.56481176217266 0.0288539277421015 0.1 -2.85718814811666e-05 1.28924710730853e-05 -2.93873587705572e-39
8.65541733900525 0.0207878435341498 -0.1 -0.000141030343730619 2.04546928699381e-05 -4.52814449938824e-24
8.65541733900525 0.0207878435341498 0.1 -0.000141030343730619 2.04546928699381e-05 -4.52814449938824e-24
8.74612966257232 0.0140572909126942 -0.1 -0.000261387620367098 2.54931084611801e-05 4.47430141837394e-24
8.74612966257232 0.0140572909126942 0.1 -0.000261387620367098 2.54931084611801e-05 4.47430141837394e-24
8.83693521055471 0.00868932955387368 -0.1 -0.000394197835844781 2.80271567671343e-05 7.17464813734306e-43
8.83693521055471 0.00868932955387368 0.1 -0.000394197835844781 2.80271567671343e-05 7.17464813734306e-43
8.92780721111209 0.00465694660802621 -0.1 -0.000539984302196531 2.75406056853923e-05 7.07447079474635e-24
8.92780721111209 0.00465694660802621 0.1 -0.000539984302196531 2.75406056853923e-05 7.07447079474635e-24
9.01873050178148 0.00194579585280552 -0.1 -0.000698404027293543 2.38672834797478e-05 -1.65146037954507e-23
9.01873050178148 0.00194579585280552 0.1 -0.000698404027293543 2.38672834797478e-05 -1.65146037954507e-23
9.10968205668717 0.000535499683041813 -0.1 -0.000877844370176979 1.69680163942869e-05 1.35102479806481e-21
9.10968205668717 0.000535499683041813 0.1 -0.000877844370176979 1.69680163942869e-05 1.35102479806481e-21
9.2006445933242 0.000105710334058803 -0.1 -0.0010848406501746 8.95489677020714e-06 3.83588837879643e-22
9.2006445933242 0.000105710334058803 0.1 -0.0010848406501746 8.95489677020714e-06 3.83588837879643e-22
9.29160852160571 1.7874889557467e-05 -0.1 -0.0012636063154384 3.72267605257819e-06 -1.05196948177651e-22
9.29160852160571 1.7874889557467e-05 0.1 -0.0012636063154384 3.72267605257819e-06 -1.05196948177651e-22
9.38257151061258 2.33723072597503e-06 -0.1 -0.00139168430498167 2.13941532470767e-06 -1.14255061133477e-23
9.38257151061258 2.33723072597503e-06 0.1 -0.00139168430498167 2.13941532470767e-06 -1.14255061133477e-23
9.47353627927821 3.34465550148539e-07 -0.1 -0.00149356895748821 1.74093562336659e-06 -2.52023938775044e-24
9.47353627927821 3.34465550148539e-07 0.1 -0.00149356895748821 1.74093562336659e-06 -2.52023938775044e-24
9.56449868875687 3.66347059114008e-08 -0.1 -0.00157935719824451 1.53889381771545e-06 1.11658135151219e-23
9.56449868875687 3.66347059114008e-08 0.1 -0.00157935719824451 1.53889381771545e-06 1.11658135151219e-23
9.65546359168694 -1.97642674207849e-18 -0.1 -0.00165233315602281 1.37935266424928e-06 -2.01739501454961e-26
9.65546359168694 -1.97642674207849e-18 0.1 -0.00165233315602281 1.37935266424928e-06 -2.01739501454961e-26
9.74642625444202 0 -0.1 -0.00171504784320654 1.23231961367417e-06 -1.1133430299556e-36
9.74642625444202 0 0.1 -0.00171504784320654 1.23231961367417e-06 -1.1133430299556e-36
9.83739035698111 0 -0.1 -0.0017690802138477 1.09514477646215e-06 0
9.83739035698111 0 0.1 -0.0017690802138477 1.09514477646215e-06 0
9.92835366646639 0 -0.1 -0.00181566698015808 9.6865615328469e-07 0
9.92835366646639 0 0.1 -0.00181566698015808 9.6865615328469e-07 0
10.0193179533852 0 -0.1 -0.00185586444286981 8.53237253300025e-07 0
10.0193179533852 0 0.1 -0.00185586444286981 8.53237253300025e-07 0
10.1102803926177 0 -0.1 -0.00189057427477484 7.49082033791827e-07 0
10.1102803926177 0 0.1 -0.00189057427477484 7.49082033791827e-07 0
10.2012459021858 0 -0.1 -0.00192057749790804 6.55899592367952e-07 0
10.2012459021858 0 0.1 -0.00192057749790804 6.55899592367952e-07 0
10.2922079099666 0 -0.1 -0.00194654937015124 5.73180271705554e-07 0
10.2922079099666 0 0.1 -0.00194654937015124 5.73180271705554e-07 0
10.3831732753184 0 -0.1 -0.00196907206505944 5.00178399275684e-07 0
10.3831732753184 0 0.1 -0.00196907206505944 5.00178399275684e-07 0
10.4741352898378 0 -0.1 -0.00198864548515788 4.36098221589685e-07 0
10.4741352898378 0 0.1 -0.00198864548515788 4.36098221589685e-07 0
10.5650996477845 0 -0.1 -0.0020056986473401 3.80157051889835e-07 0
10.5650996477845 0 0.1 -0.0020056986473401 3.80157051889835e-07 0
10.6560635375828 0 -0.1 -0.00202059894002896 3.31518952803362e-07 0
10.6560635375828 0 0.1 -0.00202059894002896 3.31518952803362e-07 0
10.7470258717929 0 -0.1 -0.00203366092267573 2.89503865925041e-07 0
10.7470258717929 0 0.1 -0.00203366092267573 2.89503865925041e-07 0
10.8379913505375 0 -0.1 -0.00204515430917621 2.5335215720687e-07 1.97626707442491e-24
10.8379913505375 0 0.1 -0.00204515430917621 2.5335215720687e-07 1.97626707442491e-24
10.9289531951952 0 -0.1 -0.00205531037200453 2.22477433672435e-07 -1.97517098296794e-24
10.9289531951952 0 0.1 -0.00205531037200453 2.22477433672435e-07 -1.97517098296794e-24
11.0199188264715 0 -0.1 -0.00206432711226857 1.96258528924526e-07 0
11.0199188264715 0 0.1 -0.00206432711226857 1.96258528924526e-07 0
11.1108811058173 0 -0.1 -0.00207237679968626 1.74236469009284e-07 0
11.1108811058173 0 0.1 -0.00207237679968626 1.74236469009284e-07 0
11.2018454022335 0 -0.1 -0.00207960417998095 1.55847763854544e-07 0
11.2018454022335 0 0.1 -0.00207960417998095 1.55847763854544e-07 0
11.2928087474312 0 -0.1 -0.00208614332003479 1.40921321883794e-07 -1.31622467865535e-24
11.2928087474312 0 0.1 -0.00208614332003479 1.40921321883794e-07 -1.31622467865535e-24
11.3837726419322 0 -0.1 -0.00209209410403861 1.28647293760421e-07 1.31577085065373e-24
11.3837726419322 0 0.1 -0.00209209410403861 1.28647293760421e-07 1.31577085065373e-24
11.4747364686543 0 -0.1 -0.00209757964340608 1.19739965239194e-07 0
11.4747364686543 0 0.1 -0.00209757964340608 1.19739965239194e-07 0
11.5657001908446 0 -0.1 -0.00210263847761426 1.12006682971209e-07 0
11.5657001908446 0 0.1 -0.00210263847761426 1.12006682971209e-07 0
11.6566629420992 0 -0.1 -0.00210745299598444 1.09391486182055e-07 4.6059663626193e-25
11.6566629420992 0 0.1 -0.00210745299598444 1.09391486182055e-07 4.6059663626193e-25
11.7476270958573 0 -0.1 -0.00211189040133413 1.03686631860996e-07 -4.36454061296619e-26
11.7476270958573 0 0.1 -0.00211189040133413 1.03686631860996e-07 -4.36454061296619e-26
11.8385908543101 0 -0.1 -0.00211645475453134 1.11759676698993e-07 -4.16713777812794e-25
11.8385908543101 0 0.1 -0.00211645475453134 1.11759676698993e-07 -4.16713777812794e-25
11.9295545439289 0 -0.1 -0.00212033945186526 1.00084149641955e-07 -3.32577567891667e-25
11.9295545439289 0 0.1 -0.00212033945186526 1.00084149641955e-07 -3.32577567891667e-25
12.0205188423593 0 -0.1 -0.00212546161038946 1.38928708665122e-07 6.21987209968689e-25
12.0205188423593 0 0.1 -0.00212546161038946 1.38928708665122e-07 6.21987209968689e-25
12.1114816190866 0 -0.1 -0.00212815199600518 8.81324135337789e-08 -4.14499866168318e-25
12.1114816190866 0 0.1 -0.00212815199600518 8.81324135337789e-08 -4.14499866168318e-25
12.2024451896402 0 -0.1 -0.00213639655249353 2.4230476384416e-07 1.24989918634809e-25
12.2024451896402 0 0.1 -0.00213639655249353 2.4230476384416e-07 1.24989918634809e-25
12.2934091664755 0 -0.1 -0.00213426180871065 4.76613540091467e-09 0
12.2934091664755 0 0.1 -0.00213426180871065 4.76613540091467e-09 0
12.3843731794693 0 -0.1 -0.0021551669223737 6.59592443703142e-07 0
12.3843731794693 0 0.1 -0.0021551669223737 6.59592443703142e-07 0
12.4753372704347 0 -0.1 -0.00213500469479037 -8.17740825819485e-07 0
12.4753372704347 0 0.1 -0.00213500469479037 -8.17740825819485e-07 0
12.56630039 0 -0.1 -0.00217935522910358 3.06848466027145e-06 0
12.56630039 0 0.1 -0.00217935522910358 3.06848466027145e-06 0
