/*--------------------------------*- C++ -*----------------------------------*\
| =========                 |                                                 |
| \\      /  F ield         | OpenFOAM: The Open Source CFD Toolbox           |
|  \\    /   O peration     | Version:  v2006                                 |
|   \\  /    A nd           | Website:  www.openfoam.com                      |
|    \\/     M anipulation  |                                                 |
\*---------------------------------------------------------------------------*/
FoamFile
{
    version     2.0;
    format      ascii;
    class       volSymmTensorField;
    location    "0";
    object      b_ml;
}
// * * * * * * * * * * * * * * * * * * * * * * * * * * * * * * * * * * * * * //

dimensions      [0 0 0 0 0 0 0];


internalField   nonuniform List<symmTensor>
14000
(
( 0.095979 -0.008556  0.000000 -0.074382  0.000000 -0.021597)
( 0.096631 -0.008462  0.000000 -0.074432  0.000000 -0.022199)
( 0.097109 -0.008135  0.000000 -0.074391  0.000000 -0.022718)
( 0.097113 -0.007598  0.000000 -0.074107  0.000000 -0.023006)
( 0.096410 -0.006957  0.000000 -0.073430  0.000000 -0.022980)
( 0.094883 -0.006334  0.000000 -0.072271  0.000000 -0.022613)
( 0.092526 -0.005800 -0.000000 -0.070622  0.000000 -0.021904)
( 0.089437 -0.005354 -0.000000 -0.068568  0.000000 -0.020869)
( 0.085854 -0.004910 -0.000000 -0.066294  0.000000 -0.019560)
( 0.082187 -0.004299 -0.000000 -0.064083  0.000000 -0.018105)
( 0.078955 -0.003293 -0.000000 -0.062261  0.000000 -0.016694)
( 0.076600 -0.001669 -0.000000 -0.061078  0.000000 -0.015522)
( 0.075287  0.000702 -0.000000 -0.060588  0.000000 -0.014698)
( 0.074829  0.003787 -0.000000 -0.060628  0.000000 -0.014201)
( 0.074836  0.007398 -0.000000 -0.060913 -0.000000 -0.013923)
( 0.074941  0.011283 -0.000000 -0.061187 -0.000000 -0.013754)
( 0.074951  0.015247 -0.000000 -0.061315 -0.000000 -0.013636)
( 0.074841  0.019211 -0.000000 -0.061277 -0.000000 -0.013564)
( 0.074656  0.023171 -0.000000 -0.061100 -0.000000 -0.013556)
( 0.074433  0.027141 -0.000000 -0.060808 -0.000000 -0.013625)
( 0.074191  0.031103 -0.000000 -0.060417 -0.000000 -0.013774)
( 0.073948  0.035006 -0.000000 -0.059953  0.000000 -0.013995)
( 0.073748  0.038765 -0.000000 -0.059463  0.000000 -0.014284)
( 0.073665  0.042267  0.000000 -0.059027  0.000000 -0.014638)
( 0.073808  0.045377  0.000000 -0.058747  0.000000 -0.015061)
( 0.074296  0.047947  0.000000 -0.058736  0.000000 -0.015561)
( 0.075236  0.049818  0.000000 -0.059093 -0.000000 -0.016142)
( 0.076682  0.050824 -0.000000 -0.059883 -0.000000 -0.016799)
( 0.078614  0.050796  0.000000 -0.061107 -0.000000 -0.017507)
( 0.080927  0.049585  0.000000 -0.062701 -0.000000 -0.018226)
( 0.083442  0.047101  0.000000 -0.064529 -0.000000 -0.018913)
( 0.085951  0.043356  0.000000 -0.066408 -0.000000 -0.019543)
( 0.088265  0.038500  0.000000 -0.068141 -0.000000 -0.020124)
( 0.090262  0.032817  0.000000 -0.069560 -0.000000 -0.020702)
( 0.091894  0.026680  0.000000 -0.070563 -0.000000 -0.021331)
( 0.093179  0.020487  0.000000 -0.071134 -0.000000 -0.022046)
( 0.094176  0.014594  0.000000 -0.071333 -0.000000 -0.022843)
( 0.094923  0.009249  0.000000 -0.071255 -0.000000 -0.023668)
( 0.095341  0.004539  0.000000 -0.070937 -0.000000 -0.024404)
( 0.095177  0.000397  0.000000 -0.070301 -0.000000 -0.024876)
( 0.094086 -0.003337 -0.000000 -0.069172 -0.000000 -0.024913)
( 0.091835 -0.006814 -0.000000 -0.067398  0.000000 -0.024437)
( 0.088456 -0.010090 -0.000000 -0.064958  0.000000 -0.023498)
( 0.084223 -0.013103 -0.000000 -0.061991  0.000000 -0.022232)
( 0.079468 -0.015731 -0.000000 -0.058702  0.000000 -0.020766)
( 0.074405 -0.017878 -0.000000 -0.055238  0.000000 -0.019167)
( 0.069057 -0.019507 -0.000000 -0.051629  0.000000 -0.017427)
( 0.063320 -0.020623 -0.000000 -0.047821  0.000000 -0.015499)
( 0.057130 -0.021234 -0.000000 -0.043777  0.000000 -0.013354)
( 0.050632 -0.021352 -0.000000 -0.039581  0.000000 -0.011051)
( 0.044222 -0.021010 -0.000000 -0.035457  0.000000 -0.008765)
( 0.038390 -0.020273 -0.000000 -0.031670  0.000000 -0.006719)
( 0.033469 -0.019238 -0.000000 -0.028394  0.000000 -0.005075)
( 0.029510 -0.018009 -0.000000 -0.025651  0.000000 -0.003860)
( 0.026348 -0.016681  0.000000 -0.023348  0.000000 -0.003000)
( 0.023764 -0.015332  0.000000 -0.021372  0.000000 -0.002392)
( 0.021595 -0.014027  0.000000 -0.019637  0.000000 -0.001958)
( 0.019751 -0.012816  0.000000 -0.018101  0.000000 -0.001650)
( 0.018187 -0.011729  0.000000 -0.016747  0.000000 -0.001439)
( 0.016863 -0.010780 -0.000000 -0.015566  0.000000 -0.001298)
( 0.015745 -0.009971 -0.000000 -0.014546  0.000000 -0.001199)
( 0.014803 -0.009291 -0.000000 -0.013678  0.000000 -0.001125)
( 0.014018 -0.008724 -0.000000 -0.012955  0.000000 -0.001063)
( 0.013387 -0.008252 -0.000000 -0.012376  0.000000 -0.001011)
( 0.012906 -0.007860 -0.000000 -0.011938  0.000000 -0.000968)
( 0.012570 -0.007535 -0.000000 -0.011635  0.000000 -0.000934)
( 0.012370 -0.007270 -0.000000 -0.011459  0.000000 -0.000911)
( 0.012298 -0.007055 -0.000000 -0.011402  0.000000 -0.000896)
( 0.012348 -0.006882 -0.000000 -0.011458  0.000000 -0.000889)
( 0.012514 -0.006742 -0.000000 -0.011624  0.000000 -0.000890)
( 0.012794 -0.006628 -0.000000 -0.011896  0.000000 -0.000898)
( 0.013182 -0.006535 -0.000000 -0.012269  0.000000 -0.000912)
( 0.013671 -0.006462 -0.000000 -0.012738  0.000000 -0.000934)
( 0.014260 -0.006407 -0.000000 -0.013297  0.000000 -0.000963)
( 0.014949 -0.006365 -0.000000 -0.013946  0.000000 -0.001003)
( 0.015744 -0.006331 -0.000000 -0.014688  0.000000 -0.001056)
( 0.016652 -0.006296  0.000000 -0.015528  0.000000 -0.001123)
( 0.017684 -0.006257  0.000000 -0.016481  0.000000 -0.001203)
( 0.018860 -0.006213  0.000000 -0.017570  0.000000 -0.001289)
( 0.020205 -0.006163  0.000000 -0.018829  0.000000 -0.001376)
( 0.021739 -0.006103  0.000000 -0.020279  0.000000 -0.001460)
( 0.023460 -0.006020  0.000000 -0.021917  0.000000 -0.001544)
( 0.025350 -0.005911  0.000000 -0.023716  0.000000 -0.001634)
( 0.027382 -0.005785  0.000000 -0.025647  0.000000 -0.001735)
( 0.029536 -0.005675  0.000000 -0.027689  0.000000 -0.001847)
( 0.031805 -0.005617  0.000000 -0.029833  0.000000 -0.001973)
( 0.034192 -0.005643  0.000000 -0.032080  0.000000 -0.002112)
( 0.036700 -0.005760  0.000000 -0.034424  0.000000 -0.002275)
( 0.039320 -0.005939  0.000000 -0.036846  0.000000 -0.002474)
( 0.042027 -0.006124  0.000000 -0.039308  0.000000 -0.002719)
( 0.044771 -0.006263  0.000000 -0.041757  0.000000 -0.003015)
( 0.047491 -0.006334  0.000000 -0.044133  0.000000 -0.003358)
( 0.050140 -0.006355  0.000000 -0.046393  0.000000 -0.003746)
( 0.052708 -0.006357  0.000000 -0.048524  0.000000 -0.004184)
( 0.055218 -0.006357  0.000000 -0.050542  0.000000 -0.004677)
( 0.057707 -0.006352  0.000000 -0.052476  0.000000 -0.005231)
( 0.060199 -0.006328  0.000000 -0.054351  0.000000 -0.005847)
( 0.062695 -0.006278  0.000000 -0.056177  0.000000 -0.006518)
( 0.065180 -0.006200  0.000000 -0.057950  0.000000 -0.007230)
( 0.067627 -0.006097  0.000000 -0.059658  0.000000 -0.007969)
( 0.070007 -0.005977  0.000000 -0.061289  0.000000 -0.008718)
( 0.072294 -0.005848  0.000000 -0.062832  0.000000 -0.009462)
( 0.074466 -0.005719  0.000000 -0.064276  0.000000 -0.010190)
( 0.076500 -0.005599  0.000000 -0.065611  0.000000 -0.010889)
( 0.078376 -0.005496  0.000000 -0.066828  0.000000 -0.011549)
( 0.080079 -0.005418  0.000000 -0.067917  0.000000 -0.012162)
( 0.081605 -0.005364 -0.000000 -0.068880 -0.000000 -0.012725)
( 0.082962 -0.005334 -0.000000 -0.069724 -0.000000 -0.013238)
( 0.084168 -0.005324 -0.000000 -0.070462 -0.000000 -0.013706)
( 0.085246 -0.005328 -0.000000 -0.071110 -0.000000 -0.014135)
( 0.086219 -0.005343 -0.000000 -0.071685 -0.000000 -0.014534)
( 0.087105 -0.005364 -0.000000 -0.072199 -0.000000 -0.014906)
( 0.087919 -0.005388 -0.000000 -0.072663 -0.000000 -0.015255)
( 0.088670 -0.005414 -0.000000 -0.073085 -0.000000 -0.015586)
( 0.089370 -0.005438 -0.000000 -0.073471 -0.000000 -0.015899)
( 0.090027 -0.005458 -0.000000 -0.073830 -0.000000 -0.016197)
( 0.090646 -0.005475 -0.000000 -0.074165 -0.000000 -0.016481)
( 0.091230 -0.005488 -0.000000 -0.074479 -0.000000 -0.016751)
( 0.091784 -0.005496 -0.000000 -0.074776 -0.000000 -0.017008)
( 0.092316 -0.005498 -0.000000 -0.075061 -0.000000 -0.017255)
( 0.092831 -0.005494 -0.000000 -0.075337 -0.000000 -0.017493)
( 0.093328 -0.005484 -0.000000 -0.075605 -0.000000 -0.017723)
( 0.093810 -0.005470 -0.000000 -0.075865 -0.000000 -0.017945)
( 0.094276 -0.005452 -0.000000 -0.076117 -0.000000 -0.018159)
( 0.094730 -0.005430 -0.000000 -0.076363 -0.000000 -0.018367)
( 0.095175 -0.005404 -0.000000 -0.076605 -0.000000 -0.018570)
( 0.095610 -0.005374 -0.000000 -0.076843 -0.000000 -0.018768)
( 0.096040 -0.005341 -0.000000 -0.077078 -0.000000 -0.018962)
( 0.096466 -0.005306 -0.000000 -0.077312 -0.000000 -0.019153)
( 0.096887 -0.005270  0.000000 -0.077545  0.000000 -0.019342)
( 0.097302 -0.005235  0.000000 -0.077775  0.000000 -0.019527)
( 0.097704 -0.005202  0.000000 -0.077998  0.000000 -0.019706)
( 0.098085 -0.005177  0.000000 -0.078208  0.000000 -0.019876)
( 0.098425 -0.005170  0.000000 -0.078394  0.000000 -0.020031)
( 0.098679 -0.005203  0.000000 -0.078526  0.000000 -0.020153)
( 0.098749 -0.005322  0.000000 -0.078542  0.000000 -0.020207)
( 0.098486 -0.005588  0.000000 -0.078347  0.000000 -0.020139)
( 0.097762 -0.006047  0.000000 -0.077864  0.000000 -0.019898)
( 0.096602 -0.006679  0.000000 -0.077110  0.000000 -0.019493)
( 0.095258 -0.007371  0.000000 -0.076245  0.000000 -0.019012)
( 0.167532 -0.018886  0.000000 -0.125526  0.000000 -0.042007)
( 0.169526 -0.018499  0.000000 -0.126110  0.000000 -0.043416)
( 0.171244 -0.017756  0.000000 -0.126576  0.000000 -0.044668)
( 0.172088 -0.016709  0.000000 -0.126631  0.000000 -0.045457)
( 0.171652 -0.015523  0.000000 -0.126021  0.000000 -0.045632)
( 0.169743 -0.014383  0.000000 -0.124586  0.000000 -0.045158)
( 0.166298 -0.013417 -0.000000 -0.122275  0.000000 -0.044023)
( 0.161375 -0.012650 -0.000000 -0.119162  0.000000 -0.042213)
( 0.155272 -0.011958 -0.000000 -0.115491  0.000000 -0.039782)
( 0.148667 -0.011044 -0.000000 -0.111729  0.000000 -0.036938)
( 0.142546 -0.009478 -0.000000 -0.108488  0.000000 -0.034058)
( 0.137856 -0.006827 -0.000000 -0.106295  0.000000 -0.031561)
( 0.135039 -0.002841 -0.000000 -0.105328  0.000000 -0.029711)
( 0.133845  0.002417 -0.000000 -0.105335 -0.000000 -0.028510)
( 0.133572  0.008597 -0.000000 -0.105805 -0.000000 -0.027767)
( 0.133521  0.015245 -0.000000 -0.106257 -0.000000 -0.027264)
( 0.133312  0.022016 -0.000000 -0.106432 -0.000000 -0.026880)
( 0.132882  0.028764 -0.000000 -0.106286 -0.000000 -0.026596)
( 0.132314  0.035479 -0.000000 -0.105873 -0.000000 -0.026441)
( 0.131684  0.042164 -0.000000 -0.105245 -0.000000 -0.026439)
( 0.131032  0.048780 -0.000000 -0.104438 -0.000000 -0.026593)
( 0.130388  0.055226 -0.000000 -0.103493 -0.000000 -0.026894)
( 0.129811  0.061347 -0.000000 -0.102484  0.000000 -0.027327)
( 0.129408  0.066946  0.000000 -0.101525  0.000000 -0.027883)
( 0.129337  0.071800  0.000000 -0.100771  0.000000 -0.028566)
( 0.129787  0.075672  0.000000 -0.100396  0.000000 -0.029391)
( 0.130930  0.078320  0.000000 -0.100557 -0.000000 -0.030373)
( 0.132861  0.079492  0.000000 -0.101357 -0.000000 -0.031504)
( 0.135555  0.078931  0.000000 -0.102806 -0.000000 -0.032749)
( 0.138851  0.076411  0.000000 -0.104806 -0.000000 -0.034045)
( 0.142481  0.071798  0.000000 -0.107156 -0.000000 -0.035325)
( 0.146151  0.065142  0.000000 -0.109593 -0.000000 -0.036558)
( 0.149641  0.056743  0.000000 -0.111857 -0.000000 -0.037783)
( 0.152881  0.047141  0.000000 -0.113769 -0.000000 -0.039112)
( 0.155950  0.037016  0.000000 -0.115273 -0.000000 -0.040677)
( 0.159015  0.027051  0.000000 -0.116451 -0.000000 -0.042564)
( 0.162230  0.017800  0.000000 -0.117471 -0.000000 -0.044759)
( 0.165580  0.009583  0.000000 -0.118466 -0.000000 -0.047114)
( 0.168694  0.002426  0.000000 -0.119375 -0.000000 -0.049319)
( 0.170808 -0.003916 -0.000000 -0.119865 -0.000000 -0.050943)
( 0.171036 -0.009812 -0.000000 -0.119444 -0.000000 -0.051592)
( 0.168831 -0.015553 -0.000000 -0.117731 -0.000000 -0.051100)
( 0.164262 -0.021201 -0.000000 -0.114661  0.000000 -0.049601)
( 0.157888 -0.026582 -0.000000 -0.110496  0.000000 -0.047392)
( 0.150349 -0.031426 -0.000000 -0.105611  0.000000 -0.044738)
( 0.142021 -0.035522 -0.000000 -0.100266  0.000000 -0.041755)
( 0.132893 -0.038777 -0.000000 -0.094488  0.000000 -0.038405)
( 0.122705 -0.041163 -0.000000 -0.088144  0.000000 -0.034562)
( 0.111282 -0.042652 -0.000000 -0.081147  0.000000 -0.030135)
( 0.098902 -0.043220 -0.000000 -0.073670  0.000000 -0.025232)
( 0.086422 -0.042894 -0.000000 -0.066194  0.000000 -0.020228)
( 0.074954 -0.041788 -0.000000 -0.059317  0.000000 -0.015638)
( 0.065317 -0.040086 -0.000000 -0.053452  0.000000 -0.011865)
( 0.057713 -0.037985 -0.000000 -0.048685  0.000000 -0.009028)
( 0.051837 -0.035653  0.000000 -0.044838  0.000000 -0.006998)
( 0.047214 -0.033229  0.000000 -0.041655  0.000000 -0.005559)
( 0.043464 -0.030826  0.000000 -0.038932  0.000000 -0.004531)
( 0.040359 -0.028540  0.000000 -0.036555  0.000000 -0.003805)
( 0.037774 -0.026437  0.000000 -0.034465  0.000000 -0.003308)
( 0.035612 -0.024557 -0.000000 -0.032632  0.000000 -0.002980)
( 0.033788 -0.022912 -0.000000 -0.031027  0.000000 -0.002761)
( 0.032236 -0.021492 -0.000000 -0.029632  0.000000 -0.002604)
( 0.030923 -0.020276 -0.000000 -0.028443  0.000000 -0.002480)
( 0.029842 -0.019234 -0.000000 -0.027466  0.000000 -0.002376)
( 0.028997 -0.018341 -0.000000 -0.026707  0.000000 -0.002289)
( 0.028385 -0.017579 -0.000000 -0.026166  0.000000 -0.002220)
( 0.028001 -0.016935 -0.000000 -0.025834  0.000000 -0.002167)
( 0.027832 -0.016395 -0.000000 -0.025703  0.000000 -0.002129)
( 0.027872 -0.015944 -0.000000 -0.025766  0.000000 -0.002105)
( 0.028114 -0.015564 -0.000000 -0.026019  0.000000 -0.002095)
( 0.028552 -0.015242 -0.000000 -0.026455  0.000000 -0.002097)
( 0.029174 -0.014967 -0.000000 -0.027062  0.000000 -0.002112)
( 0.029966 -0.014733 -0.000000 -0.027825  0.000000 -0.002141)
( 0.030915 -0.014533 -0.000000 -0.028730  0.000000 -0.002185)
( 0.032017 -0.014357 -0.000000 -0.029768  0.000000 -0.002249)
( 0.033276 -0.014189 -0.000000 -0.030940  0.000000 -0.002336)
( 0.034698 -0.014020  0.000000 -0.032253  0.000000 -0.002445)
( 0.036298 -0.013847  0.000000 -0.033731  0.000000 -0.002568)
( 0.038104 -0.013678  0.000000 -0.035410  0.000000 -0.002693)
( 0.040148 -0.013514  0.000000 -0.037337  0.000000 -0.002811)
( 0.042451 -0.013346  0.000000 -0.039534  0.000000 -0.002917)
( 0.044998 -0.013160  0.000000 -0.041978  0.000000 -0.003021)
( 0.047747 -0.012949  0.000000 -0.044615  0.000000 -0.003132)
( 0.050652 -0.012732  0.000000 -0.047392  0.000000 -0.003260)
( 0.053684 -0.012558  0.000000 -0.050278  0.000000 -0.003406)
( 0.056851 -0.012485  0.000000 -0.053279  0.000000 -0.003572)
( 0.060181 -0.012556  0.000000 -0.056419  0.000000 -0.003762)
( 0.063710 -0.012779  0.000000 -0.059719  0.000000 -0.003991)
( 0.067449 -0.013113  0.000000 -0.063168  0.000000 -0.004281)
( 0.071364 -0.013486  0.000000 -0.066716  0.000000 -0.004648)
( 0.075374 -0.013828  0.000000 -0.070272  0.000000 -0.005103)
( 0.079381 -0.014108  0.000000 -0.073739  0.000000 -0.005642)
( 0.083312 -0.014343  0.000000 -0.077047  0.000000 -0.006266)
( 0.087156 -0.014556  0.000000 -0.080175  0.000000 -0.006981)
( 0.090956 -0.014756  0.000000 -0.083155  0.000000 -0.007801)
( 0.094775 -0.014925  0.000000 -0.086038  0.000000 -0.008737)
( 0.098660 -0.015042  0.000000 -0.088866  0.000000 -0.009793)
( 0.102617 -0.015095  0.000000 -0.091659  0.000000 -0.010958)
( 0.106622 -0.015082  0.000000 -0.094408  0.000000 -0.012214)
( 0.110628 -0.015013  0.000000 -0.097094  0.000000 -0.013533)
( 0.114583 -0.014901  0.000000 -0.099695  0.000000 -0.014888)
( 0.118440 -0.014758  0.000000 -0.102189  0.000000 -0.016251)
( 0.122155 -0.014601  0.000000 -0.104555  0.000000 -0.017599)
( 0.125680 -0.014446  0.000000 -0.106772  0.000000 -0.018908)
( 0.128970 -0.014310  0.000000 -0.108813  0.000000 -0.020157)
( 0.131987 -0.014205  0.000000 -0.110658  0.000000 -0.021329)
( 0.134713 -0.014137  0.000000 -0.112300  0.000000 -0.022413)
( 0.137153 -0.014105 -0.000000 -0.113745 -0.000000 -0.023409)
( 0.139336 -0.014103 -0.000000 -0.115012 -0.000000 -0.024323)
( 0.141299 -0.014125 -0.000000 -0.116129 -0.000000 -0.025169)
( 0.143083 -0.014162 -0.000000 -0.117125 -0.000000 -0.025959)
( 0.144723 -0.014206 -0.000000 -0.118021 -0.000000 -0.026702)
( 0.146240 -0.014254 -0.000000 -0.118835 -0.000000 -0.027404)
( 0.147651 -0.014302 -0.000000 -0.119580 -0.000000 -0.028071)
( 0.148975 -0.014347 -0.000000 -0.120267 -0.000000 -0.028708)
( 0.150225 -0.014387 -0.000000 -0.120909 -0.000000 -0.029316)
( 0.151405 -0.014420 -0.000000 -0.121509 -0.000000 -0.029896)
( 0.152522 -0.014448 -0.000000 -0.122073 -0.000000 -0.030449)
( 0.153586 -0.014467 -0.000000 -0.122610 -0.000000 -0.030977)
( 0.154614 -0.014475 -0.000000 -0.123129 -0.000000 -0.031485)
( 0.155613 -0.014469 -0.000000 -0.123637 -0.000000 -0.031976)
( 0.156583 -0.014453 -0.000000 -0.124133 -0.000000 -0.032450)
( 0.157524 -0.014429 -0.000000 -0.124615 -0.000000 -0.032909)
( 0.158436 -0.014399 -0.000000 -0.125084 -0.000000 -0.033351)
( 0.159321 -0.014363 -0.000000 -0.125542 -0.000000 -0.033780)
( 0.160185 -0.014320 -0.000000 -0.125990 -0.000000 -0.034195)
( 0.161031 -0.014271 -0.000000 -0.126431 -0.000000 -0.034600)
( 0.161865 -0.014217 -0.000000 -0.126869 -0.000000 -0.034997)
( 0.162690 -0.014158 -0.000000 -0.127304 -0.000000 -0.035386)
( 0.163507 -0.014097  0.000000 -0.127738  0.000000 -0.035770)
( 0.164313 -0.014038  0.000000 -0.128167  0.000000 -0.036146)
( 0.165097 -0.013983  0.000000 -0.128586  0.000000 -0.036511)
( 0.165845 -0.013940  0.000000 -0.128985  0.000000 -0.036860)
( 0.166529 -0.013923  0.000000 -0.129346  0.000000 -0.037183)
( 0.167076 -0.013969  0.000000 -0.129622  0.000000 -0.037454)
( 0.167322 -0.014150  0.000000 -0.129709  0.000000 -0.037613)
( 0.167012 -0.014569  0.000000 -0.129449  0.000000 -0.037562)
( 0.165921 -0.015306  0.000000 -0.128706  0.000000 -0.037215)
( 0.164087 -0.016329  0.000000 -0.127509  0.000000 -0.036578)
( 0.161926 -0.017447  0.000000 -0.126123  0.000000 -0.035803)
( 0.251247 -0.032491  0.000000 -0.182464  0.000000 -0.068783)
( 0.255554 -0.031605  0.000000 -0.184053  0.000000 -0.071500)
( 0.259443 -0.030265  0.000000 -0.185475  0.000000 -0.073967)
( 0.261912 -0.028567  0.000000 -0.186257  0.000000 -0.075655)
( 0.262388 -0.026715  0.000000 -0.186048  0.000000 -0.076340)
( 0.260643 -0.024942  0.000000 -0.184650  0.000000 -0.075994)
( 0.256545 -0.023438 -0.000000 -0.181958  0.000000 -0.074587)
( 0.250006 -0.022287 -0.000000 -0.177969  0.000000 -0.072037)
( 0.241254 -0.021362 -0.000000 -0.172916  0.000000 -0.068338)
( 0.231174 -0.020246 -0.000000 -0.167418  0.000000 -0.063756)
( 0.221315 -0.018261 -0.000000 -0.162427  0.000000 -0.058888)
( 0.213331 -0.014691 -0.000000 -0.158863  0.000000 -0.054468)
( 0.208158 -0.009095 -0.000000 -0.157143 -0.000000 -0.051015)
( 0.205595 -0.001531 -0.000000 -0.156982 -0.000000 -0.048613)
( 0.204630  0.007477 -0.000000 -0.157624 -0.000000 -0.047005)
( 0.204168  0.017237 -0.000000 -0.158315 -0.000000 -0.045853)
( 0.203569  0.027220 -0.000000 -0.158619 -0.000000 -0.044950)
( 0.202687  0.037182 -0.000000 -0.158441 -0.000000 -0.044245)
( 0.201613  0.047074 -0.000000 -0.157846 -0.000000 -0.043766)
( 0.200457  0.056875 -0.000000 -0.156913 -0.000000 -0.043544)
( 0.199279  0.066504 -0.000000 -0.155697 -0.000000 -0.043581)
( 0.198120  0.075795 -0.000000 -0.154257 -0.000000 -0.043863)
( 0.197045  0.084504 -0.000000 -0.152684 -0.000000 -0.044361)
( 0.196174  0.092328  0.000000 -0.151119 -0.000000 -0.045054)
( 0.195695  0.098935  0.000000 -0.149754  0.000000 -0.045941)
( 0.195852  0.103996  0.000000 -0.148809 -0.000000 -0.047043)
( 0.196877  0.107187  0.000000 -0.148493 -0.000000 -0.048384)
( 0.198914  0.108187  0.000000 -0.148945 -0.000000 -0.049968)
( 0.201948  0.106677  0.000000 -0.150190 -0.000000 -0.051758)
( 0.205785  0.102374  0.000000 -0.152107 -0.000000 -0.053678)
( 0.210100  0.095122  0.000000 -0.154446 -0.000000 -0.055655)
( 0.214556  0.085025  0.000000 -0.156886 -0.000000 -0.057670)
( 0.218971  0.072556  0.000000 -0.159146 -0.000000 -0.059825)
( 0.223436  0.058556  0.000000 -0.161095 -0.000000 -0.062341)
( 0.228302  0.044074  0.000000 -0.162823 -0.000000 -0.065479)
( 0.234033  0.030128  0.000000 -0.164619 -0.000000 -0.069414)
( 0.240961  0.017489  0.000000 -0.166842 -0.000000 -0.074118)
( 0.248960  0.006519 -0.000000 -0.169685 -0.000000 -0.079274)
( 0.257134 -0.002901 -0.000000 -0.172898 -0.000000 -0.084236)
( 0.263849 -0.011303 -0.000000 -0.175715 -0.000000 -0.088134)
( 0.267346 -0.019369 -0.000000 -0.177141 -0.000000 -0.090205)
( 0.266613 -0.027587 -0.000000 -0.176447 -0.000000 -0.090166)
( 0.261807 -0.036018 -0.000000 -0.173504  0.000000 -0.088303)
( 0.253904 -0.044332 -0.000000 -0.168727  0.000000 -0.085177)
( 0.243948 -0.052050 -0.000000 -0.162704  0.000000 -0.081245)
( 0.232485 -0.058803 -0.000000 -0.155808  0.000000 -0.076677)
( 0.219407 -0.064406 -0.000000 -0.148036  0.000000 -0.071371)
( 0.204180 -0.068768 -0.000000 -0.139116  0.000000 -0.065063)
( 0.186392 -0.071786 -0.000000 -0.128848  0.000000 -0.057543)
( 0.166417 -0.073358 -0.000000 -0.117480  0.000000 -0.048937)
( 0.145697 -0.073475 -0.000000 -0.105826  0.000000 -0.039872)
( 0.126263 -0.072297 -0.000000 -0.094967  0.000000 -0.031297)
( 0.109770 -0.070113 -0.000000 -0.085737  0.000000 -0.024033)
( 0.096824 -0.067240 -0.000000 -0.078405  0.000000 -0.018419)
( 0.087050 -0.063941  0.000000 -0.072740  0.000000 -0.014311)
( 0.079653 -0.060418  0.000000 -0.068304  0.000000 -0.011348)
( 0.073912 -0.056839  0.000000 -0.064708  0.000000 -0.009204)
( 0.069364 -0.053349  0.000000 -0.061698  0.000000 -0.007665)
( 0.065728 -0.050063 -0.000000 -0.059133  0.000000 -0.006595)
( 0.062800 -0.047054 -0.000000 -0.056921  0.000000 -0.005880)
( 0.060401 -0.044355 -0.000000 -0.054992  0.000000 -0.005409)
( 0.058390 -0.041966 -0.000000 -0.053301  0.000000 -0.005089)
( 0.056690 -0.039862 -0.000000 -0.051835  0.000000 -0.004855)
( 0.055275 -0.038007 -0.000000 -0.050604  0.000000 -0.004671)
( 0.054147 -0.036370 -0.000000 -0.049624  0.000000 -0.004523)
( 0.053309 -0.034927 -0.000000 -0.048907  0.000000 -0.004402)
( 0.052754 -0.033662 -0.000000 -0.048450  0.000000 -0.004304)
( 0.052477 -0.032560 -0.000000 -0.048250  0.000000 -0.004227)
( 0.052473 -0.031598 -0.000000 -0.048305  0.000000 -0.004168)
( 0.052738 -0.030753 -0.000000 -0.048611  0.000000 -0.004127)
( 0.053266 -0.030003 -0.000000 -0.049162  0.000000 -0.004104)
( 0.054041 -0.029328 -0.000000 -0.049941  0.000000 -0.004100)
( 0.055040 -0.028715 -0.000000 -0.050921  0.000000 -0.004119)
( 0.056240 -0.028146 -0.000000 -0.052075  0.000000 -0.004165)
( 0.057628 -0.027598  0.000000 -0.053384 -0.000000 -0.004244)
( 0.059201 -0.027053  0.000000 -0.054845 -0.000000 -0.004356)
( 0.060964 -0.026507  0.000000 -0.056470 -0.000000 -0.004493)
( 0.062930 -0.025978  0.000000 -0.058294 -0.000000 -0.004636)
( 0.065133 -0.025485  0.000000 -0.060370  0.000000 -0.004763)
( 0.067609 -0.025029  0.000000 -0.062745  0.000000 -0.004865)
( 0.070371 -0.024590  0.000000 -0.065426  0.000000 -0.004945)
( 0.073385 -0.024140  0.000000 -0.068365  0.000000 -0.005020)
( 0.076588 -0.023671  0.000000 -0.071479  0.000000 -0.005109)
( 0.079919 -0.023214  0.000000 -0.074698  0.000000 -0.005221)
( 0.083356 -0.022834  0.000000 -0.077996  0.000000 -0.005361)
( 0.086931 -0.022603  0.000000 -0.081403  0.000000 -0.005528)
( 0.090718 -0.022576  0.000000 -0.084987  0.000000 -0.005730)
( 0.094799 -0.022764  0.000000 -0.088811  0.000000 -0.005988)
( 0.099212 -0.023127  0.000000 -0.092884  0.000000 -0.006327)
( 0.103916 -0.023587  0.000000 -0.097143  0.000000 -0.006773)
( 0.108800 -0.024068  0.000000 -0.101463  0.000000 -0.007337)
( 0.113726 -0.024534  0.000000 -0.105706  0.000000 -0.008020)
( 0.118600 -0.024988  0.000000 -0.109774  0.000000 -0.008826)
( 0.123410 -0.025443  0.000000 -0.113642  0.000000 -0.009769)
( 0.128220 -0.025886  0.000000 -0.117351  0.000000 -0.010869)
( 0.133121 -0.026286  0.000000 -0.120974  0.000000 -0.012147)
( 0.138183 -0.026609  0.000000 -0.124570  0.000000 -0.013613)
( 0.143428 -0.026835  0.000000 -0.128168  0.000000 -0.015260)
( 0.148826 -0.026961  0.000000 -0.131762  0.000000 -0.017064)
( 0.154317 -0.026996  0.000000 -0.135326  0.000000 -0.018991)
( 0.159830 -0.026955  0.000000 -0.138830  0.000000 -0.021000)
( 0.165298 -0.026858  0.000000 -0.142245  0.000000 -0.023052)
( 0.170649 -0.026724  0.000000 -0.145538  0.000000 -0.025111)
( 0.175807 -0.026576  0.000000 -0.148669  0.000000 -0.027137)
( 0.180689 -0.026438  0.000000 -0.151594  0.000000 -0.029094)
( 0.185225 -0.026329  0.000000 -0.154274  0.000000 -0.030951)
( 0.189376 -0.026262  0.000000 -0.156686  0.000000 -0.032689)
( 0.193134 -0.026239 -0.000000 -0.158831 -0.000000 -0.034303)
( 0.196532 -0.026254 -0.000000 -0.160731 -0.000000 -0.035801)
( 0.199623 -0.026297 -0.000000 -0.162423 -0.000000 -0.037200)
( 0.202464 -0.026357 -0.000000 -0.163946 -0.000000 -0.038518)
( 0.205101 -0.026425 -0.000000 -0.165332 -0.000000 -0.039770)
( 0.207565 -0.026494 -0.000000 -0.166603 -0.000000 -0.040962)
( 0.209877 -0.026562 -0.000000 -0.167775 -0.000000 -0.042102)
( 0.212059 -0.026626 -0.000000 -0.168864 -0.000000 -0.043195)
( 0.214125 -0.026683 -0.000000 -0.169883 -0.000000 -0.044242)
( 0.216083 -0.026734 -0.000000 -0.170839 -0.000000 -0.045244)
( 0.217940 -0.026778 -0.000000 -0.171740 -0.000000 -0.046200)
( 0.219718 -0.026809 -0.000000 -0.172601 -0.000000 -0.047116)
( 0.221441 -0.026823 -0.000000 -0.173440 -0.000000 -0.048001)
( 0.223123 -0.026815 -0.000000 -0.174264 -0.000000 -0.048859)
( 0.224763 -0.026790 -0.000000 -0.175073 -0.000000 -0.049690)
( 0.226353 -0.026755 -0.000000 -0.175860 -0.000000 -0.050492)
( 0.227889 -0.026712 -0.000000 -0.176623 -0.000000 -0.051266)
( 0.229374 -0.026664 -0.000000 -0.177363 -0.000000 -0.052011)
( 0.230814 -0.026609 -0.000000 -0.178082 -0.000000 -0.052732)
( 0.232217 -0.026547 -0.000000 -0.178786 -0.000000 -0.053431)
( 0.233593 -0.026477 -0.000000 -0.179481 -0.000000 -0.054113)
( 0.234949 -0.026403  0.000000 -0.180169  0.000000 -0.054780)
( 0.236285 -0.026327  0.000000 -0.180852  0.000000 -0.055433)
( 0.237597 -0.026253  0.000000 -0.181526  0.000000 -0.056071)
( 0.238871 -0.026188  0.000000 -0.182182  0.000000 -0.056689)
( 0.240094 -0.026137  0.000000 -0.182811  0.000000 -0.057283)
( 0.241237 -0.026117  0.000000 -0.183394  0.000000 -0.057844)
( 0.242214 -0.026173  0.000000 -0.183874  0.000000 -0.058340)
( 0.242809 -0.026400  0.000000 -0.184118  0.000000 -0.058691)
( 0.242680 -0.026934  0.000000 -0.183913  0.000000 -0.058767)
( 0.241518 -0.027886  0.000000 -0.183074  0.000000 -0.058443)
( 0.239358 -0.029214  0.000000 -0.181637  0.000000 -0.057720)
( 0.236736 -0.030666  0.000000 -0.179945  0.000000 -0.056791)
( 0.329476 -0.046657 -0.000000 -0.233056  0.000000 -0.096420)
( 0.336790 -0.045117 -0.000000 -0.235995  0.000000 -0.100795)
( 0.343550 -0.043069 -0.000000 -0.238709  0.000000 -0.104841)
( 0.348310 -0.040661  0.000000 -0.240530  0.000000 -0.107780)
( 0.350384 -0.038105  0.000000 -0.241060  0.000000 -0.109324)
( 0.349596 -0.035646 -0.000000 -0.240116  0.000000 -0.109480)
( 0.345761 -0.033531 -0.000000 -0.237550  0.000000 -0.108210)
( 0.338552 -0.031930 -0.000000 -0.233228  0.000000 -0.105325)
( 0.327946 -0.030774 -0.000000 -0.227258 -0.000000 -0.100688)
( 0.314842 -0.029584 -0.000000 -0.220301 -0.000000 -0.094541)
( 0.301243 -0.027472 -0.000000 -0.213592 -0.000000 -0.087650)
( 0.289547 -0.023424 -0.000000 -0.208479 -0.000000 -0.081068)
( 0.281349 -0.016755 -0.000000 -0.205722 -0.000000 -0.075627)
( 0.276710 -0.007458 -0.000000 -0.205125 -0.000000 -0.071585)
( 0.274480  0.003841  0.000000 -0.205785 -0.000000 -0.068695)
( 0.273252  0.016258  0.000000 -0.206706 -0.000000 -0.066546)
( 0.272114  0.029088  0.000000 -0.207260 -0.000000 -0.064855)
( 0.270764  0.041965  0.000000 -0.207248 -0.000000 -0.063516)
( 0.269231  0.054761  0.000000 -0.206703 -0.000000 -0.062528)
( 0.267608  0.067397  0.000000 -0.205702 -0.000000 -0.061905)
( 0.265958  0.079726 -0.000000 -0.204312 -0.000000 -0.061646)
( 0.264325  0.091505 -0.000000 -0.202599 -0.000000 -0.061726)
( 0.262759  0.102389 -0.000000 -0.200657 -0.000000 -0.062102)
( 0.261353  0.111962  0.000000 -0.198620 -0.000000 -0.062733)
( 0.260279  0.119784  0.000000 -0.196678 -0.000000 -0.063601)
( 0.259787  0.125445  0.000000 -0.195061 -0.000000 -0.064726)
( 0.260144  0.128585  0.000000 -0.193998 -0.000000 -0.066145)
( 0.261545  0.128882  0.000000 -0.193663 -0.000000 -0.067882)
( 0.264027  0.126038  0.000000 -0.194104 -0.000000 -0.069922)
( 0.267436  0.119797  0.000000 -0.195220 -0.000000 -0.072217)
( 0.271482  0.110036  0.000000 -0.196762 -0.000000 -0.074720)
( 0.275883  0.096919  0.000000 -0.198417 -0.000000 -0.077466)
( 0.280589  0.081047  0.000000 -0.199942 -0.000000 -0.080648)
( 0.285941  0.063472  0.000000 -0.201316 -0.000000 -0.084625)
( 0.292657  0.045522  0.000000 -0.202833 -0.000000 -0.089824)
( 0.301596  0.028489  0.000000 -0.205052 -0.000000 -0.096545)
( 0.313327  0.013321  0.000000 -0.208574 -0.000000 -0.104753)
( 0.327572  0.000398 -0.000000 -0.213658 -0.000000 -0.113914)
( 0.342751 -0.010567 -0.000000 -0.219825 -0.000000 -0.122926)
( 0.356128 -0.020415 -0.000000 -0.225799 -0.000000 -0.130330)
( 0.364864 -0.030164 -0.000000 -0.229992 -0.000000 -0.134872)
( 0.367388 -0.040516 -0.000000 -0.231272 -0.000000 -0.136116)
( 0.363967 -0.051544 -0.000000 -0.229424  0.000000 -0.134543)
( 0.356053 -0.062762 -0.000000 -0.225011  0.000000 -0.131042)
( 0.345112 -0.073477 -0.000000 -0.218816  0.000000 -0.126296)
( 0.331840 -0.083146 -0.000000 -0.211318  0.000000 -0.120522)
( 0.316005 -0.091475 -0.000000 -0.202464  0.000000 -0.113541)
( 0.296749 -0.098292 -0.000000 -0.191812  0.000000 -0.104937)
( 0.273304 -0.103403 -0.000000 -0.178977  0.000000 -0.094327)