/*--------------------------------*- C++ -*----------------------------------*\
| =========                 |                                                 |
| \\      /  F ield         | OpenFOAM: The Open Source CFD Toolbox           |
|  \\    /   O peration     | Version:  v2006                                 |
|   \\  /    A nd           | Website:  www.openfoam.com                      |
|    \\/     M anipulation  |                                                 |
\*---------------------------------------------------------------------------*/
FoamFile
{
    version     2.0;
    format      ascii;
    class       volScalarField;
    location    "7000";
    object      k;
}
// * * * * * * * * * * * * * * * * * * * * * * * * * * * * * * * * * * * * * //

dimensions      [0 2 -2 0 0 0 0];


internalField   nonuniform List<scalar> 
14000
(
0.00012303833156366
0.000117806892218583
0.000107692958192262
9.619996103476e-05
8.35943976971854e-05
7.23114191616364e-05
6.40036203346437e-05
5.83563993045199e-05
5.51461727946365e-05
5.40148079555653e-05
5.52932257879022e-05
5.84582860921245e-05
6.40804496247611e-05
7.2433882473439e-05
8.3111964159443e-05
9.69126591330818e-05
0.000114587498203972
0.000136504555383712
0.000161632116431594
0.000193906691359354
0.000230625368250386
0.000275738816548628
0.000328401077113608
0.000398360439101474
0.000480602232678647
0.000573300744837332
0.000680859519113999
0.000789590480863933
0.000893492779014083
0.000990838005684531
0.00107004525818407
0.00112176212533989
0.00113513520624545
0.00109390015475505
0.0010135655971151
0.000891231047926143
0.000745783975926008
0.000606998881512558
0.000491160687058086
0.000400800400754128
0.000324060029914411
0.000260169208159444
0.000207946529646612
0.000164613174076471
0.000127881347942202
9.83740799189912e-05
7.33837943055503e-05
5.34178870588132e-05
3.7759315679348e-05
2.52287804428167e-05
1.57691041941496e-05
9.69298946192566e-06
5.8334469606563e-06
7.62166474914928e-06
1.06735189541985e-05
1.39278094944946e-05
1.69231230848063e-05
1.98163828188455e-05
2.21351351341036e-05
2.3879684607323e-05
2.49852227678966e-05
2.61675037727623e-05
2.67355009885936e-05
2.69737479472643e-05
2.72390516764907e-05
2.73712295446793e-05
2.70981054860865e-05
2.69551737459349e-05
2.65935792697925e-05
2.59640222471142e-05
2.52869671933006e-05
2.43375288261783e-05
2.33196506062593e-05
2.19932574372506e-05
2.05546459807298e-05
1.89151305335741e-05
1.71691054151318e-05
1.53452072852881e-05
1.35025903497979e-05
1.16684691801286e-05
9.95435094289994e-06
8.99290366581494e-06
1.23335264177972e-05
1.70632324306733e-05
2.33589013392179e-05
3.28499221256553e-05
4.51374148316498e-05
5.52811662719983e-05
6.3829361334767e-05
7.22651867356836e-05
7.99761825047323e-05
8.70732861289896e-05
9.35988928413786e-05
9.94820263542292e-05
0.000104752765192941
0.000109448932562616
0.000113573541214586
0.000117256132491918
0.000120453355108814
0.000123219577680745
0.000125668547494553
0.000127745362247443
0.000129551939161568
0.00013114318073693
0.000132489751916968
0.000133633368937002
0.000134617352989141
0.000135475644423503
0.000136192769580165
0.000136839989203428
0.000137324558336771
0.000137764913634077
0.000138154948291834
0.000138466874393664
0.000138726501222989
0.000138911266859872
0.000139149739019146
0.000139305160353175
0.000139400152124971
0.000139509487176658
0.000139604009465535
0.000139658942872512
0.000139757277577974
0.000139734090015383
0.000139821749487523
0.000139847700865437
0.000139840083192286
0.000139902100915654
0.000139919725226695
0.000139950187233226
0.000139958521352714
0.000140047888473506
0.000140080737611943
0.000140116392931837
0.000140152156117055
0.00014046184179006
0.000140221214897073
0.000141196712832747
0.000140430537132886
0.000141529419646476
0.000189365908736832
0.000184751628298283
0.000178851475183007
0.000172047723257576
0.000164888436034575
0.000159224093555288
0.000155416459515346
0.000153261967155658
0.000152499401982175
0.00015285170294814
0.000154471200832231
0.000156939647634455
0.000161079695050243
0.000165582405113757
0.00017017222070769
0.000175081484925328
0.000180331802315853
0.000185334147420635
0.00018995470159949
0.000195925535512376
0.000200951768687989
0.000207916726752668
0.000215204733859346
0.000227167158973205
0.000239193683149705
0.000253673425105509
0.000269988851185716
0.000285989045236729
0.000301293057793312
0.000315857238358812
0.000327631510789341
0.000335717416329598
0.00033791334550005
0.000331041771671833
0.000317303513717415
0.000295786109492835
0.000270646443867375
0.000247585033374228
0.000230916610235673
0.000220550207164225
0.000214028536332948
0.000211025461122986
0.000210717073181327
0.00021199082975272
0.000213876645687344
0.00021605544698382
0.000216663365634658
0.000216539541114289
0.000213602749500647
0.000207782232418548
0.000199412573794685
0.000190080535025888
0.000178002426264197
0.000166194317690976
0.000154215948418365
0.000144425357203735
0.000134467650136533
0.000126533166416747
0.000119926675889242
0.000115310960271677
0.000110544028513899
0.000107818910772826
0.000106805052447743
0.00010588382554362
0.000106093097981988
0.000108152099000345
0.000110611606988961
0.000113871202808211
0.000119552171934274
0.000125060225320008
0.000132318499373271
0.000140123596335861
0.000149675061301883
0.000160235164820709
0.00017172603291608
0.000184702414063766
0.000198348960237991
0.000213684170156305
0.000229926151411334
0.000247642625087726
0.000265497693363233
0.000285271737538496
0.000306153681272209
0.000328758336832107
0.000352395007468656
0.000382953253977338
0.000402919200619713
0.000404295232950272
0.000402205630233295
0.000398009260162261
0.000393208624996696
0.000387877962227191
0.000382411144532128
0.000376617169646959
0.000370828730450527
0.000364961895643863
0.000359201550834048
0.000353617974452481
0.000348107631647108
0.000342824057400963
0.000337757884070672
0.000332836328886889
0.000328201512868651
0.000323768071094816
0.000319519878121306
0.000315466617436741
0.000311623008496534
0.00030797317384957
0.000304493334764211
0.000301206496607674
0.000297991683011334
0.000295027645448957
0.000292156760812522
0.000289443149020364
0.000286820585729144
0.000284335405356211
0.000282036301622625
0.000279740065239227
0.000277582769168941
0.000275526292108794
0.000273562601938047
0.000271679341020943
0.000269903311588272
0.000268108879452014
0.000266552837085448
0.00026489792879098
0.000263417295331849
0.000261976334123857
0.000260589630436368
0.000259262837680313
0.000257988388078435
0.000256832255599304
0.000255633068151089
0.000254527021870532
0.000253516585799191
0.000252607946973277
0.000251543733130961
0.000251250937109799
0.000249639569626364
0.000249842326501529
0.00117220699620831
0.0011549090105406
0.00113293224427486
0.00110662597918228
0.00107832553035338
0.00105523264595183
0.00103913423550471
0.00102986155973896
0.00102636621606662
0.00102745266754795
0.001034107070116
0.00104562782602305
0.00106459308203251
0.00108326825979639
0.00110001956064563
0.00111546404363342
0.00112920019384847
0.00113755709054946
0.00114074671613775
0.00114489193489518
0.00114017678245532
0.00113843391121828
0.00113251667013678
0.00113766261288133
0.00113252044474078
0.00113070054594237
0.00112594439028033
0.00111623630274197
0.00110588979474332
0.00109711617397266
0.00108771934217221
0.00108216405344466
0.00107944360418824
0.00107821448630837
0.00107993890105612
0.00107920060664883
0.00108331510928758
0.0010949264968961
0.0011216173114193
0.00116016280603844
0.00120761256014329
0.00126385887158071
0.0013252075994176
0.00138719438717297
0.00144581278748316
0.00149776194266829
0.0015338003293218
0.00155760531245026
0.00155692924515373
0.00153127539418913
0.00148307510878617
0.00142191213055709
0.00133867139162731
0.00124927694121264
0.00115673545409069
0.00107814692011511
0.000999686693084877
0.00093547019703179
0.000882040512878237
0.000843883073650405
0.000806117963583119
0.000783041964916821
0.000773316944506272
0.000765158126758812
0.000765113759719945
0.000778624746672142
0.00079561247819379
0.000818196478925409
0.000858380799213852
0.000897779739745418
0.000949426692007029
0.00100488479507834
0.00107219162537103
0.00114630092700936
0.00122619985211989
0.00131543145286585
0.0014083238379214
0.00151095506356328
0.0016182469763811
0.0017329116128129
0.00184701412758852
0.00196948975240782
0.00209344184344079
0.00222301815582962
0.00235496735153337
0.00251657824843838
0.00262009143859118
0.00262546530263905
0.0026044327547039
0.00256999081490059
0.00253122272067831
0.00248946043487762
0.0024469170347494
0.0024031364286131
0.0023597738423873
0.0023166612567693
0.00227473602835976
0.00223437143551797
0.0021951617967131
0.00215777853041599
0.00212216173708154
0.00208799675782708
0.00205584814014265
0.00202531739298971
0.00199628693340402
0.0019687492471808
0.00194273253513715
0.00191811745192622
0.0018947843241319
0.00187274832934357
0.00185150161008225
0.00183174000930858
0.00181278260578697
0.00179486438649818
0.00177766477248842
0.00176139122047675
0.00174618561349635
0.0017312753538868
0.00171720793911347
0.00170380806663984
0.00169101877166783
0.00167880406550886
0.0016671976510545
0.0016557441340837
0.00164543578012458
0.00163488526833486
0.00162523213034296
0.00161587762249884
0.00160689942826505
0.00159828819502301
0.00159004233990108
0.00158238637248198
0.00157467161244462
0.00156742233459868
0.00156077638786341
0.00155442349553076
0.00154794429946637
0.00154405801677736
0.00153606517844946
0.00153338303613418
0.00297354268961775
0.00294671830604761
0.00291394556679685
0.00287758069369866
0.00284199105231588
0.00281843799269601
0.00280850518316487
0.00281009124000253
0.00281984874134022
0.00283519750017561
0.00285529848561315
0.00287740483783502
0.00290793485657265
0.00293678317299227
0.00296074746702236
0.00298048387110243
0.00299585926333549
0.00300132744192194
0.0029977462255494
0.0029933724790673
0.00297558962923164
0.00295987807230983
0.0029378568152017
0.00293042295440985
0.00290639813659959
0.00288359040248525
0.00285293035582592
0.00281115167586788
0.00276623929885959
0.00272405725578231
0.00268433232431293
0.00265437533328451
0.00263716123737063
0.00263921984303865
0.00266824661317081
0.00271839187034937
0.00280557240483155
0.00293227850405903
0.00310656239716962
0.0033140792580028
0.00354523448661787
0.00379797063591384
0.00406168892765686
0.00432318500769276
0.00457141996393146
0.00479427306637527
0.00496825627941529
0.00509881998862179
0.00515392540470269
0.00513001856420869
0.00503331898424202
0.00488405615780251
0.00465979071203654
0.00440055787405468
0.00411907696327753
0.003864642150089
0.00360542718871081
0.00338329995471928
0.00319341911767
0.00305099988875361
0.00291240960907884
0.00281984624907653
0.00277117395343904
0.00273030205102749
0.00271442665321449
0.00274130039219585
0.0027798288025421
0.00283370579716307
0.00293718996658649
0.00303761944113763
0.00316825067155192
0.00330647179328688
0.00347108471612351
0.00364853083466615
0.00383526726791243
0.00403720255756644
0.00424242947292675
0.00446074184355514
0.00468330126276926
0.00491245390994618
0.00513520849172701
0.00536419352713003
0.00559015230444274
0.00581663377531568
0.00604049082375051
0.0062988878149056
0.00646502590671712
0.00647256418623633
0.00641664092031898
0.00632864769297319
0.00622711597083079
0.00611783548582527
0.00600574039883867
0.00589169064419515
0.00577863199985194
0.00566711110527793
0.00555878193978793
0.00545451333710716
0.00535401255616989
0.00525820934251916
0.00516712673030684
0.00508037059606541
0.00499857518980601
0.00492123081689256
0.00484805794963474
0.0047789242186544
0.00471376540643987
0.00465231694828057
0.00459432821508199
0.0045396594409748
0.00448760922822817
0.00443885624669314
0.00439255827087433
0.00434883884719807
0.00430722732335046
0.00426789293416268
0.00423092538026368
0.0041953533593717
0.00416167877833276
0.00412969359209109
0.0040992510385966
0.00407028010244833
0.00404271359236505
0.0040160354901761
0.00399128216846858
0.00396690462596938
0.00394407376175566
0.0039221507600233
0.00390115867208019
0.00388103928253121
0.00386179798614983
0.003843641629812
0.0038258358548684
0.00380885883216815
0.00379304090529544
0.00377772859383116
0.00376289946312025
0.00375078242047223
0.00373543485802327
0.00372086900685541
0.00437671958194583
0.00435697709152762
0.00433123021197969
0.00430474485419891
0.00428391858854696
0.00427988618039311
0.0042944931521997
0.00432419951626577
0.00436312065209833
0.00440644355555623
0.00445041177877382
0.00449075559426352
0.00453261258135098
0.00456934831632371
0.0045984632246656
0.00462055257486699
0.00463605911356115
0.00464040636776288
0.00463491972745253
0.00462648632803734
0.00460564756999778
0.00458482641815817
0.00455822138119761
0.00454309857443696
0.00451178872449547
0.00447715874377853
0.00443002595330385
0.00436591922972371
0.00429181805818563
0.0042146327073819
0.00413718103915485
0.0040678610254399
0.00401331847221603
0.00398830553473872
0.00401110960277886
0.00408789053104027
0.00424488057327983
0.00449399511893466
0.00484434887014047
0.00527528043609955
0.00576694908128364
0.00630757028461279
0.00687665191815297
0.00744908966961046
0.00800387963196891
0.00851653763794794
0.00895344472137717
0.00931257498732342
0.00955150353929764
0.00965998003002236
0.00964585565206545
0.0095271852134011
0.00927464780098628
0.00893430913774716
0.00852803945177873
0.00812275150564226
0.00768609227062418
0.00728239877527473
0.00691774372603121
0.00661993189406269
0.00633164116004807
0.00611618531594053
0.00597387955744882
0.00585276151771579
0.00577350120328089
0.0057650797433212
0.00577940260393028
0.00581942606300482
0.00593010548413766
0.00604174072803681
0.0061930611653232
0.00635574671365617
0.0065518640288476
0.00676412862169445
0.00698772790492229
0.00722717155270562
0.00747039671890969
0.00772588756062772
0.00798581079882156
0.0082506152658457
0.00850755179333071
0.00876747421423754
0.00902308987227438
0.0092754994079885
0.00952238808145141
0.00979920790936246
0.00998046621665574
0.00998700093958803
0.00990272157738353
0.00976819005222388
0.00960823852257321
0.0094335964693472
0.00925199991598644
0.0090663933476981
0.0088808608527113
0.00869704550620373
0.00851726287982739
0.00834300088215021
0.00817447159402773
0.00801282479203228
0.00785836408235365
0.00771088113211582
0.00757101067518807
0.00743836911824088
0.00731266058031442
0.00719368898436419
0.00708131926021812
0.00697522029849553
0.00687505750173975
0.00678056372829948
0.0066909952032717
0.00660676693814404
0.006527072663656
0.0064518480716125
0.006380559119451
0.00631321307243826
0.00624977465106704
0.00618932721907858
0.00613211623166876
0.00607789626057162
0.0060264413885959
0.00597760932008701
0.00593123099998292
0.00588682728158861
0.0058451146458566
0.00580484298205536
0.00576680443604743
0.00573047912133075
0.00569580924963
0.0056626787372486
0.00563105330001025
0.00560103571798254
0.00557202659033537
0.00554429443299247
0.00551813904540352
0.00549292271463902
0.00546875264286489
0.00544683748349506
0.00542463038564081
0.00539399674185113
0.00522800432510032
0.00521727670439386
0.00520073743333412
0.00518436010169105
0.00517569350493079
0.00518533315308506
0.0052167043910172
0.00526736661107792
0.00533112958276267
0.00540167223542133
0.00547297697139378
0.00553873792180269
0.00560138239127414
0.0056558571643434
0.00570016589025422
0.00573462581836901
0.00575986482605048
0.00577260879343687
0.00577436466679544
0.00577048181925932
0.00575476558375503
0.00573659916388327
0.00571251853380702
0.00569559722651502
0.00566366214287996
0.00562466966681737
0.00556955040591366
0.00549252686281582
0.0053975437304667
0.00528972498974199
0.00517215598917874
0.00505276904988361
0.00493839656114516
0.00484745289496306
0.00480462597799032
0.00482966847216705
0.00495830560668928
0.00521674953610896
0.00562132534892818
0.00615974237438985
0.006812717404562
0.00756142818871255
0.00837886595996569
0.00923106734395924
0.0100868031729147
0.0109091175800953
0.0116575811238024
0.0123143879997081
0.0128346533545375
0.0131976303447271
0.0134058197659831
0.0134671822420757
0.0133518908464987
0.0130941406057214
0.0127183361448442
0.0122894696370666
0.0117863295690098
0.011279374565303
0.0107920675636878
0.0103630998373779
0.00994253758289537
0.00960115536511185
0.00934647206568321
0.00912663134267045
0.00895960729484231
0.00887973419248947
0.00883490231689488
0.00882703018155716
0.00889859382483288
0.00898346512778159
0.00911290173169849
0.00926079372046813
0.00944711934842819
0.00965499831836059
0.0098783584931452
0.0101196654596281
0.0103678257571848
0.0106289681123172
0.0108966251184974
0.0111695354730686
0.0114356747254392
0.0117032592497458
0.011966706043727
0.0122251005878642
0.0124761553424598
0.0127515931126494
0.0129340568817797
0.0129389728852192
0.0128358796494754
0.012668166366368
0.012464170896601
0.01223841420921
0.0120009862643001
0.0117567168734505
0.0115106796418774
0.0112654737522267
0.0110239729182273
0.0107881894758346
0.0105588319704595
0.010337283404766
0.01012414086053
0.00991944488962333
0.00972390464993643
0.00953732671570688
0.00935950917541421
0.0091902956459709
0.00902956842451493
0.00887702161236579
0.00873232279095129
0.00859517919030205
0.00846486775227103
0.00834164336412464
0.00822475609669669
0.0081140432154084
0.00800895152920863
0.00790937515323568
0.00781519976906691
0.00772556563520181
0.00764054263470249
0.00755984153238998
0.00748318228246849
0.0074103589446631
0.00734114043663198
0.00727504868328872
0.00721256971902359
0.00715264785908383
0.00709580575030707
0.00704158226605775
0.00698985717180216
0.00694046697580455
0.00689332342514071
0.00684844967596579
0.00680532806069828
0.00676408741249188
0.00672492672563913
0.00668731105977391
0.00665129725071762
0.00661738416244171
0.00658622325308983
0.00653688347737768
0.00573787711914103
0.00573362019290539
0.00572409480227576
0.00571442912580441
0.00571202796793212
0.00572688685084127
0.00576408360124172
0.00582360075353772
0.00590107222672725
0.00599052874960237
0.00608505739946942
0.00617709530514964
0.00626517715491515
0.00634443338244084
0.00641246098799622
0.00646875599113404
0.00651349968528612
0.00654414597256018
0.00656213032632079
0.00657150099256437
0.00656836291663922
0.00656004342538655
0.00654472467913214
0.00653250891284866
0.00650562002538648
0.00646910953380775
0.00641419890833989
0.00633427445475929
0.00623067518504525
0.00610609652046399
0.00596190334357091
0.00580374351450844
0.00563518316927297
0.00547165988000677
0.00533721146944704
0.00525651032369102
0.00527151699326948
0.00542159566388839
0.00573603353897742
0.00621999497440896
0.00686763577785027
0.00766569384278842
0.00859090631057667
0.00960957774667683
0.0106856349630305
0.0117729467595716
0.0128245303651961
0.0138035233633668
0.014660367405405
0.0153602661853417
0.0158924316606886
0.016250634403285
0.01640310483302
0.0163656562091236
0.0161571388055545
0.0158327822631412
0.0153802255879486
0.0148676508359948
0.014334031907121
0.0138295510242432
0.0133191077500284
0.0128776115341859
0.0125245445083579
0.0122142785549084
0.0119621543013279
0.0118066734675111
0.0116975453867143
0.0116345985630195
0.0116567472596531
0.0117049336777284
0.0118020436959729
0.0119249189225332
0.0120905865901387
0.0122835401344853
0.0124963549759806
0.0127297506232548
0.0129732678297343
0.0132309641500866
0.013497238021345
0.0137695957579899
0.014036465940866
0.0143037910087129
0.014567011452232
0.0148237945308345
0.0150714327299781
0.0153379104963579
0.0155135488140572
0.015512163891388
0.0153919428614634
0.0151965016657196
0.0149560109083632
0.014687697748066
0.0144035351372576
0.0141099328792575
0.0138128306350974
0.0135156165623839
0.013221623439857
0.0129332633522593
0.0126516333474334
0.0123783014570196
0.0121140807853227
0.0118592087475306
0.0116144572333634
0.0113797783245863
0.0111550600443675
0.0109401972611499
0.0107351025607023
0.0105395070332852
0.0103531018768579
0.0101756006676325
0.0100063195548426
0.00984542491797877
0.00969221659769788
0.00954648817777732
0.00940769114695041
0.00927565811308484
0.00915023169692438
0.00903059893683092
0.00891673318348306
0.00880831622347077
0.00870503681498161
0.00860664898604642
0.00851288875365731
0.00842327267319668
0.00833814903861728
0.00825656672056232
0.00817889186871247
0.00810468510395229
0.0080337851239547
0.00796599656783279
0.00790118828798267
0.00783933065588089
0.00777994345374129
0.00772307550498475
0.0076688396220941
0.00761676771800753
0.00756689575325096
0.00751907834547936
0.00747703516246577
0.00740689435691347
0.00604975844310242
0.00605009565815611
0.00604605379070794
0.00604153718942622
0.00604293516676198
0.00605908032566033
0.0060957956291841
0.0061552316110773
0.00623563921256264
0.0063329409786171
0.00644101973561366
0.00655243007733064
0.00666299333657446
0.00676725538417968
0.00686164763339941
0.00694440533710031
0.00701469888928093
0.00706999353716998
0.00711129486998879
0.00714133551242609
0.00715766024970177
0.00716603552217512
0.0071657702688967
0.00716477806516798
0.00714865434976305
0.00712086726407945
0.00707319876227493
0.00699883170500779
0.00689758051100144
0.00677046659972333
0.00661729832390361
0.00644139841943908
0.00624353124392444
0.00603266269274136
0.0058273583605566
0.00564739483902619
0.00553196574134603
0.0055246189064808
0.00566583178454506
0.00597861177333698
0.00647626858474755
0.00716222575549033
0.00802876442348335
0.00905524247000986
0.0102128398297858
0.0114562909233243
0.0127373043325731
0.014003023560151
0.0151966028029849
0.0162669489350823
0.0171833377454209
0.0179197711367385
0.0184381349186
0.0187324281294059
0.0188083940237851
0.0187062963913789
0.0184171029406723
0.0180007318523137
0.0175058500794159
0.0169936077606362
0.0164457448780347
0.0159414068408337
0.0155155398938322
0.0151323270762654
0.0148063980534525
0.0145809754612147
0.0144107650060802
0.0142931713702886
0.0142648572011215
0.0142736447217057
0.014335544358986
0.0144298465240096
0.0145707848920841
0.0147443990454681
0.0149419810665349
0.0151628384988492
0.0153967958327277
0.0156462097836167
0.0159059241465257
0.0161725617431655
0.0164347680122317
0.0166966119719316
0.0169540566613898
0.017203742403835
0.0174423133059148
0.0176942804114041
0.0178565262156763
0.0178432174008995
0.0177039946403025
0.017481729355784
0.0172075168809858
0.0169005162135898
0.0165742013897332
0.0162363055447748
0.0158935378186713
0.015549959727294
0.0152093005644975
0.0148742929829025
0.0145463405569684
0.0142271562314186
0.0139177077647772
0.0136183759950682
0.0133299701364871
0.0130525376437524
0.0127860264431114
0.0125303643827149
0.0122854795686601
0.0120511231297058
0.0118269996662379
0.0116128239401516
0.0114079433672433
0.0112124600067895
0.0110257068637049
0.0108474484439666
0.0106771427419752
0.0105145828254232
0.0103595802839597
0.0102113571655668
0.0100698276168632
0.00993465476007256
0.00980550683493287
0.00968211200350998
0.00956418614343334
0.00945124335861914
0.00934354372987099
0.00924019928657914
0.00914147961687651
0.00904695505851696
0.00895643717682496
0.00886970993107728
0.0087866127739853
0.00870708069906157
0.00863065293503874
0.0085573284234734
0.00848716463120902
0.00841971465485603
0.00835506236121849
0.00829239128999878
0.00823843350713581
0.00814648946167932
0.00624176364936135
0.00624545617030055
0.00624585196112026
0.00624585386366489
0.00625062199331702
0.00626745614500827
0.0063019355149738
0.00635736313317927
0.00643416104651427
0.0065305638581905
0.00664232356703752
0.00676337536968103
0.00688879635400982
0.00701252350649828
0.00713012523746304
0.0072385244666548
0.00733559280468626
0.00741825765814445
0.00748673677831349
0.00754230392106429
0.00758321573739796
0.00761377958341106
0.00763395505034653
0.00764978552923582
0.00764946309632076
0.00763549230597126
0.00760033849541167
0.00753738595428177
0.00744569810962689
0.00732538693679222
0.00717540110228286
0.00699760898950241
0.00679114373278444
0.00656056100621886
0.00631873986796287
0.00607783951629205
0.00586798105514185
0.00572613193680334
0.00569368537159946
0.0058023943713765
0.0060797379417459
0.00654723365143898
0.0072180220484215
0.00809393175996803
0.00916669088286855
0.0104071862153071
0.011778787857585
0.0132250700367025
0.0146861030839666
0.0160971756116895
0.017405244896461
0.0185586172225543
0.0195066700912065
0.0202177142698724
0.0206770628142682
0.0209036128300879
0.0208859023374941
0.020669913673767
0.020306220542155
0.0198637403998624
0.0193409549054284
0.0188210027284748
0.0183561653699936
0.0179240898016512
0.0175410432584379
0.0172559400846362
0.017031251878784
0.0168624168693185
0.0167852935183801
0.0167541882215585
0.0167798844070064
0.0168437050594153
0.0169574361240671
0.0171086718607317
0.017287602469479
0.0174923741514887
0.0177128795217896
0.0179500527823341
0.0181988987224334
0.0184553779244106
0.0187082092964653
0.0189598810602838
0.0192065464777779
0.019444054758344
0.0196682864991045
0.0199005277150395
0.0200434422393466
0.0200127307974652
0.0198514352855557
0.0196012992211311
0.019293831448695
0.0189495802872223
0.0185832179951805
0.0182035911869068
0.0178180916290818
0.0174313680055461
0.0170475005533261
0.0166694908105616
0.0162989928744677
0.0159378356993875
0.0155871009917582
0.0152472745569705
0.0149191828419674
0.0146029328665873
0.0142985065965446
0.0140058458916981
0.0137248785034324
0.0134553580595301
0.0131969882821378
0.0129494733375009
0.0127121784605733
0.0124851475002798
0.0122677307780831
0.0120596637183306
0.0118604044257412
0.0116697124747983
0.0114873695975297
0.0113126211689167
0.011145335853978
0.0109851611248243
0.0108317473492281
0.0106848019530467
0.0105440237602899
0.0104089254685943
0.0102797018132222
0.0101555084959194
0.0100365461894673
0.00992239054485849
0.0098128329716933
0.00970764214893206
0.00960663664916115
0.00950972538806186
0.00941646048072305
0.00932680373058199
0.0092407816214653
0.00915793645744122
0.00907845099793388
0.00900081932546461
0.00893467280443058
0.00882096388071879
0.00635681129121666
0.006363018199208
0.00636701830890529
0.0063710700791241
0.0063792853758102
0.00639744985893378
0.0064303225977265
0.00648139642279446
0.00655232917253093
0.00664320495773676
0.00675180492442184
0.00687405478219401
0.00700568957973504
0.00714091615363833
0.0072750893378018
0.00740421713711053
0.00752505327072025
0.00763380923065721
0.00772973369173172
0.00781256343066993
0.00788068982462499
0.00793690447138196
0.00798135024041085
0.00801826419555755
0.00803778552976991
0.00804166112939491
0.0080230045094259
0.00797558140887066
0.00789811292398296
0.00779023973248127
0.00765052060464206
0.00748003464055955
0.00727719348481727
0.00704430846527256
0.00679066384397534
0.00652307451769884
0.00626313667230916
0.00603792646684788
0.00588154223863364
0.00582313179286441
0.00589237368332733
0.00611943548408348
0.00653226110220888
0.00715376780492647
0.00800120534509064
0.00907346643321323
0.0103606798403704
0.0118229547427235
0.0134114223200611
0.0150598111010247
0.0166993294328291
0.0182516129463621
0.0196478494788982
0.0208261848479054
0.0217440139417843
0.0223904889450723
0.0227448351457677
0.0228333081117709
0.0226995543513565
0.0224141764281503
0.021990414449457
0.0215139034342448
0.0210540166237867
0.0206054850154513
0.020188845700404
0.0198596468371165
0.0195909270182323
0.0193774529213189
0.0192554475213899
0.0191858188466051
0.0191756520607141
0.0192081563450091
0.0192930790017448
0.019419570353718
0.0195769990326083
0.0197625446369753
0.0199660755323564
0.0201873075127394
0.0204212274025284
0.020663275766082
0.0209021789221406
0.0211390494196869
0.0213700119351456
0.0215902687228739
0.0217948909097854
0.0220021315673895
0.0221200466256455
0.0220667656242578
0.0218800162372239
0.0216002112240225
0.0212589422685957
0.0208777434530968
0.0204722362637401
0.0200522032832582
0.019625634780667
0.0191976941385379
0.018772772474349
0.0183541007833974
0.0179435426255042
0.0175430197498547
0.0171536989511541
0.0167761432891923
0.0164111809850241
0.0160589538724908
0.0157194589259526
0.015392637021013
0.0150784030815418
0.0147765000505224
0.014486619190837
0.0142084441187342
0.0139413461644622
0.013685311815896
0.0134396967783181
0.0132042044294385
0.0129782859619502
0.0127616679355946
0.0125541005472428
0.0123548432081315
0.0121637234964176
0.0119803727483271
0.01180442312169
0.0116355623418966
0.0114734717423053
0.0113176617335249
0.0111682719481953
0.0110244912870385
0.0108864640668786
0.0107537685613857
0.0106261790059732
0.0105034506761553
0.0103853854423668
0.010271870401243
0.0101624679075867
0.0100571073272921
0.00995579922175276
0.00985805592575887
0.00976418680594523
0.00967200608361335
0.0095938597199603
0.00945911362950883
0.0064195879984907
0.00642773478362559
0.00643466025502506
0.00644226579776652
0.00645390728863573
0.00647411154916939
0.00650666550325023
0.00655467241082363
0.00662018811622097
0.00670437550410598
0.00680659814505518
0.00692469496507482
0.00705570931129558
0.00719493667546112
0.00733809254854293
0.00748105102934822
0.00761995740855799
0.00775048618929951
0.0078710014377576
0.00797981845696891
0.00807509851392873
0.00815808506536542
0.00822869817522744
0.00828934703755457
0.00833153711655577
0.00835624885688322
0.00835709715504501
0.00832825442225387
0.00826827403413411
0.0081765250345798
0.00805140343261797
0.00789354158756351
0.00770109807418708
0.00747533525880487
0.00722359268018295
0.00694993253725817
0.00667040042914655
0.00640453835933837
0.00617821504538936
0.00601330482725455
0.00593317439191258
0.00596517332421299
0.00613936650235979
0.00648773570306119
0.00704450352679472
0.00783505499053118
0.00888187983485256
0.0101790390053014
0.0117079511711977
0.0134224999761212
0.0152573630570287
0.0171184223498183
0.0189192322885875
0.0205657819726573
0.021981002973229
0.0231145823285963
0.0239272468678722
0.0244187861564188
0.0246164182304876
0.0245837302412066
0.0243444172635868
0.0239835434763862
0.0235848283571119
0.0231628182777911
0.0227451163504521
0.0223946329909957
0.0220977209740167
0.0218506140329199
0.0216908450128762
0.0215865663891175