/*--------------------------------*- C++ -*----------------------------------*\
| =========                 |                                                 |
| \\      /  F ield         | OpenFOAM: The Open Source CFD Toolbox           |
|  \\    /   O peration     | Version:  v2006                                 |
|   \\  /    A nd           | Website:  www.openfoam.com                      |
|    \\/     M anipulation  |                                                 |
\*---------------------------------------------------------------------------*/
FoamFile
{
    version     2.0;
    format      ascii;
    class       volScalarField;
    location    "7000";
    object      nut;
}
// * * * * * * * * * * * * * * * * * * * * * * * * * * * * * * * * * * * * * //

dimensions      [0 2 -1 0 0 0 0];


internalField   nonuniform List<scalar> 
14000
(
1.32174080818527e-07
1.26554896878618e-07
1.15691161405464e-07
1.03345844801109e-07
8.9800195811629e-08
7.76552154268641e-08
6.86686315320701e-08
6.24867833407803e-08
5.88482381681572e-08
5.73359838328374e-08
5.82431937816058e-08
6.09328631529564e-08
6.58682155983449e-08
7.31435571588995e-08
8.20920560640932e-08
9.31768161885606e-08
1.06669419929082e-07
1.22349157684183e-07
1.38657802151429e-07
1.58162191226863e-07
1.7778959680218e-07
1.99461403638129e-07
2.2153164924044e-07
2.48754260949347e-07
2.76858186351819e-07
3.03400358876575e-07
3.30793734500024e-07
3.52700175387384e-07
3.67937175748609e-07
3.77741369562149e-07
3.79878808043759e-07
3.73288769760869e-07
3.56830003217839e-07
3.27361662843293e-07
2.90776559534822e-07
2.47000187457896e-07
2.00897272251778e-07
1.59887616862195e-07
1.27204814927445e-07
1.02671642413395e-07
8.2610224120769e-08
6.63930715291901e-08
5.34301529600929e-08
4.28221627451585e-08
3.38572396312112e-08
2.66363472050817e-08
2.04119542803866e-08
1.53267985376099e-08
1.12158494159135e-08
7.78359168728578e-09
5.06789092061506e-09
3.25360873754352e-09
2.04916690669112e-09
2.80736769024013e-09
4.12842172823306e-09
5.66504652065348e-09
7.24237567102687e-09
8.92882844805652e-09
1.05023907109884e-08
1.19307539201432e-08
1.3135294874727e-08
1.44699616282653e-08
1.55398333765761e-08
1.64570664344283e-08
1.74237383112926e-08
1.83356431535619e-08
1.89768544733969e-08
1.96986298110797e-08
2.02502927537966e-08
2.05542381189348e-08
2.0771256318034e-08
2.06979640610644e-08
2.04898458463347e-08
1.99184444289613e-08
1.91414604215467e-08
1.80690221507241e-08
1.67821327640747e-08
1.53101132567593e-08
1.37157751334008e-08
1.20366867475532e-08
1.04013336774319e-08
9.49459014002864e-09
1.31243455338101e-08
1.82561898521072e-08
2.50687466805377e-08
3.52816391056966e-08
4.8469843700137e-08
5.93627399253583e-08
6.8541120065378e-08
7.75990576397472e-08
8.58784991415035e-08
9.34990312127711e-08
1.00505387038645e-07
1.06822288011684e-07
1.12481370185424e-07
1.17523871004343e-07
1.21952596766957e-07
1.25906508290053e-07
1.29339707171435e-07
1.32310106952862e-07
1.34939919320444e-07
1.37170574385938e-07
1.3911087615756e-07
1.40820028082807e-07
1.42266661715254e-07
1.43495555091782e-07
1.44553073966073e-07
1.45475647242481e-07
1.46246686915104e-07
1.46942631020864e-07
1.47464420344322e-07
1.47938459530692e-07
1.48358640181954e-07
1.48694941925627e-07
1.48975327257364e-07
1.4917533345445e-07
1.49432648049437e-07
1.49601137762993e-07
1.49704787812066e-07
1.49823836594292e-07
1.49926986501205e-07
1.49987634670676e-07
1.50094829174972e-07
1.50071906141132e-07
1.50167546116946e-07
1.50197291414446e-07
1.50190880299163e-07
1.50259130470428e-07
1.50279718910972e-07
1.50314084760907e-07
1.50324659579021e-07
1.5042199098572e-07
1.50458773744812e-07
1.50498770530023e-07
1.50538572087384e-07
1.50872570845121e-07
1.50615539685663e-07
1.51664562991048e-07
1.50842962258613e-07
1.52029463651709e-07
1.13932254094937e-06
1.10754866623674e-06
1.07059377808007e-06
1.02943568672565e-06
9.8743564654498e-07
9.56526356949566e-07
9.36942887937942e-07
9.26368434313977e-07
9.2263133522282e-07
9.23555507053854e-07
9.28784097406176e-07
9.35119208243594e-07
9.47734067461951e-07
9.57659718249352e-07
9.62908461407395e-07
9.64311209636654e-07
9.61329992539372e-07
9.50461663774121e-07
9.31346957357486e-07
9.12489203325837e-07
8.82935955619786e-07
8.56151714463108e-07
8.2486887560754e-07
8.0508777778641e-07
7.7966116402893e-07
7.57686343580901e-07
7.3774053390867e-07
7.15540353767333e-07
6.92206069306001e-07
6.69259255571612e-07
6.43928790666956e-07
6.15847396971623e-07
5.83034120467455e-07
5.42075041312694e-07
4.97655284587496e-07
4.48194439019584e-07
3.99985411805763e-07
3.59728960585901e-07
3.32145785024913e-07
3.15683393203694e-07
3.06436483567484e-07
3.03895260341816e-07
3.06778710998956e-07
3.13564469332917e-07
3.22949860745122e-07
3.34587580556258e-07
3.45443489350871e-07
3.56995279857363e-07
3.65205716654072e-07
3.69621307825516e-07
3.70130706329887e-07
3.69242160287879e-07
3.62336499437555e-07
3.55349804908695e-07
3.46726015826979e-07
3.42091845972815e-07
3.35444028231685e-07
3.32741163660514e-07
3.32361806248078e-07
3.36846719460601e-07
3.39897402186245e-07
3.48860448484684e-07
3.63477332887094e-07
3.7833085764871e-07
3.97516993714309e-07
4.24591295271258e-07
4.5416860705389e-07
4.87995806524731e-07
5.34225327334758e-07
5.81112272612354e-07
6.38231225061223e-07
7.00016495706966e-07
7.72893576377285e-07
8.5328460425077e-07
9.4075216379779e-07
1.03849649582235e-06
1.14161515175105e-06
1.25594928864701e-06
1.37633550054098e-06
1.50580113099034e-06
1.63522714515779e-06
1.7752857745654e-06
1.91956577046069e-06
2.07152623975639e-06
2.22547965535111e-06
2.41923519141154e-06
2.5376684800085e-06
2.53462284135688e-06
2.51296481198247e-06
2.47870697336581e-06
2.44151891055888e-06
2.40165492916491e-06
2.36164212279901e-06
2.32013309496161e-06
2.27931308875038e-06
2.23852780757557e-06
2.19896138464012e-06
2.16097066692677e-06
2.12383558862248e-06
2.0885378658797e-06
2.05492885385417e-06
2.02251278623089e-06
1.99218446294055e-06
1.96331805074963e-06
1.93580749408916e-06
1.90969802834909e-06
1.88505451428299e-06
1.86174654378787e-06
1.83960863737977e-06
1.8187731697115e-06
1.79845858372252e-06
1.77981944045104e-06
1.76178604972912e-06
1.7448008317041e-06
1.7284199570972e-06
1.71295104998501e-06
1.69867023909539e-06
1.68439857656782e-06
1.6710552644909e-06
1.65835025169521e-06
1.64623571772454e-06
1.63463457232363e-06
1.62371144530037e-06
1.61267199623104e-06
1.60316488267764e-06
1.59297880662629e-06
1.58394621798272e-06
1.57512568616291e-06
1.56664721175779e-06
1.55854409198332e-06
1.55076703127298e-06
1.54372558247156e-06
1.53638191276961e-06
1.52965319037206e-06
1.52350949990365e-06
1.51796503318708e-06
1.51144345298836e-06
1.50978438196525e-06
1.49919565743935e-06
1.50134850974046e-06
1.7975312027316e-05
1.77232825655529e-05
1.73918703272202e-05
1.70086829045955e-05
1.66150969667121e-05
1.63186610094172e-05
1.61475045488903e-05
1.60854970398099e-05
1.60991294613918e-05
1.615207598729e-05
1.62718360386902e-05
1.64354793322794e-05
1.66609115119771e-05
1.67908292033537e-05
1.67920878039672e-05
1.66739574775557e-05
1.6425657189052e-05
1.59885461174289e-05
1.53791592450482e-05
1.47109302077032e-05
1.38431459818201e-05
1.297799380938e-05
1.20251776915317e-05
1.11917393914918e-05
1.02342884499844e-05
9.34348743965376e-06
8.47397233793767e-06
7.63523438316328e-06
6.88057057257726e-06
6.22749326842425e-06
5.65688388435121e-06
5.20077961826781e-06
4.83519609381863e-06
4.54172368377717e-06
4.31937176360356e-06
4.14583345259085e-06
4.04186516589578e-06
4.01472233886788e-06
4.08342690501701e-06
4.23142592109163e-06
4.44381112846445e-06
4.7202608815711e-06
5.05098175646106e-06
5.42275826633492e-06
5.82403549586119e-06
6.24413055397788e-06
6.64625715109901e-06
7.04152921989729e-06
7.37097314337292e-06
7.61748238926718e-06
7.77721317089345e-06
7.88042957817823e-06
7.85784894989089e-06
7.77707841249478e-06
7.6436945554924e-06
7.56176093440245e-06
7.43799473757176e-06
7.37649553152595e-06
7.36420699237607e-06
7.45040721593488e-06
7.51468836347589e-06
7.6991428267032e-06
8.00915302203031e-06
8.33252064824735e-06
8.74819244682266e-06
9.3341744012298e-06
9.97943941156912e-06
1.0718713383238e-05
1.17318382419237e-05
1.27700069511372e-05
1.4033903126502e-05
1.53956682454254e-05
1.69942401648005e-05
1.87486033313734e-05
2.06388107976586e-05
2.27306911450126e-05
2.49075683725195e-05
2.72834534710609e-05
2.97413193549342e-05
3.23272593854855e-05
3.48517817000738e-05
3.74983583092349e-05
4.00832156020442e-05
4.26950843660907e-05
4.52320834940267e-05
4.83117057687167e-05
4.99110735648188e-05
4.92880255830825e-05
4.82587050707944e-05
4.7038766551026e-05
4.57981481029535e-05
4.45471130206318e-05
4.33291029306069e-05
4.21269753565743e-05
4.09746110531529e-05
3.98631013162471e-05
3.88094641670735e-05
3.78175293713879e-05
3.68748168905111e-05
3.59932211324208e-05
3.5168301803279e-05
3.4390735369777e-05
3.3670480603533e-05
3.29966249007028e-05
3.23651040958565e-05
3.17743869974194e-05
3.12236133478584e-05
3.07090300330419e-05
3.02269238320311e-05
2.97769070595588e-05
2.93476904998665e-05
2.89530115412668e-05
2.85779598904646e-05
2.82269293469131e-05
2.78930609938013e-05
2.75800241920928e-05
2.72901998120381e-05
2.70076761668657e-05
2.67434989200271e-05
2.649372994444e-05
2.62570375990098e-05
2.60322994426699e-05
2.582035101185e-05
2.561175006271e-05
2.54262679398519e-05
2.52360322551638e-05
2.50637528014333e-05
2.48973034894654e-05
2.4738146390421e-05
2.45861657741978e-05
2.44410999833618e-05
2.43073422307272e-05
2.41720079222786e-05
2.40458138221042e-05
2.39303853275978e-05
2.38210174539753e-05
2.37068433891376e-05
2.36440439093352e-05
2.35033670079425e-05
2.34630305904207e-05
7.90473061724506e-05
7.8071325241633e-05
7.67907677388944e-05
7.53557351053554e-05
7.39848933225471e-05
7.31146277673992e-05
7.28869657750067e-05
7.32489104113291e-05
7.40447721257171e-05
7.50971255019232e-05
7.63282375438931e-05
7.76591506640984e-05
7.91431563674427e-05
8.02903376256478e-05
8.08953779040331e-05
8.09322718993903e-05
8.0354484615874e-05
7.8932533449788e-05
7.6663231078754e-05
7.39456319417172e-05
7.02974034601056e-05
6.64120278870254e-05
6.20145071997211e-05
5.79338468441656e-05
5.32454237807641e-05
4.86375148111877e-05
4.39948089518555e-05
3.9373470335149e-05
3.50538304683863e-05
3.119592960897e-05
2.77848884558879e-05
2.492484077825e-05
2.25807681230342e-05
2.0711495987023e-05
1.93365987281504e-05
1.83596995669438e-05
1.78777333617647e-05
1.79075290456272e-05
1.85021786833628e-05
1.95649217024584e-05
2.10125533703766e-05
2.28301679220235e-05
2.49738690082837e-05
2.73844939776076e-05
3.00124265874433e-05
3.28069112416227e-05
3.56091497381616e-05
3.84561546506599e-05
4.1087432529866e-05
4.34015922452504e-05
4.53766501115507e-05
4.71294200025817e-05
4.83063431601009e-05
4.91591240986461e-05
4.97053618416743e-05
5.04399132736947e-05
5.0864203395016e-05
5.14972916911932e-05
5.23201030574512e-05
5.36375074591865e-05
5.47303805627888e-05
5.64764820197478e-05
5.8982596100642e-05
6.15198634299344e-05
6.45658806993631e-05
6.86682117550693e-05
7.3081318769737e-05
7.79679271052905e-05
8.45031369803908e-05
9.10241000080466e-05
9.87098121305551e-05
0.000106759400081167
0.000115897388200697
0.000125611329582285
0.000135718739954251
0.000146494894566286
0.000157326535741666
0.000168668356932533
0.000179991423340533
0.000191414868773381
0.000202156132029434
0.000212908560024094
0.000223008593203695
0.000232736540161392
0.000241770949845188
0.000252387420956702
0.000257356117832636
0.000253413466541954
0.000246985771095033
0.000239613754894173
0.000232094888460567
0.000224559226252066
0.000217202596122333
0.000210001801654531
0.000203086556131052
0.000196446884126802
0.000190145759763813
0.000184206448474971
0.000178587887258348
0.000173323540697333
0.000168400155473977
0.000163780265472632
0.000159487915797408
0.000155485339128234
0.000151748802974996
0.000148263683081741
0.000145020042013417
0.000141999281389976
0.000139181580423278
0.000136558184798625
0.000134086118926952
0.000131798623802639
0.000129649510954931
0.000127642481921969
0.00012575193432009
0.000123982055319837
0.00012233853697332
0.000120770445052257
0.000119300278941992
0.000117916861367214
0.000116613045760975
0.000115381987353975
0.000114223435258257
0.000113106426333059
0.000112084401479578
0.000111081022892895
0.000110150486725616
0.000109263499582764
0.00010841987522141
0.000107617083803887
0.000106853026522943
0.000106139888057088
0.000105441253833906
0.000104780320532727
0.000104166099973716
0.000103584976492642
0.000103004499671623
0.000102573479901192
0.000101965703587296
0.000101477719568075
0.000174718050007543
0.000172857989204885
0.000170174141942339
0.00016697486265035
0.000163761213511686
0.000161501969409744
0.000160680286636405
0.000161363917264016
0.00016333974262111
0.000166281374992268
0.00016991358591672
0.00017385482718523
0.000178199164726803
0.000182224690938329
0.000185466513789561
0.000187723073228998
0.000188826101339129
0.000188307548950482
0.00018597080422935
0.0001824014253072
0.000176715062759879
0.000170008346480199
0.000161775667945563
0.000153668084844846
0.00014392503366279
0.000133712576964776
0.000122813496058351
0.000111280125475704
9.9752460099188e-05
8.87866508109765e-05
7.8576529293064e-05
6.94529769373493e-05
6.14916677398974e-05
5.47249073045178e-05
4.93655101084981e-05
4.52335094099809e-05
4.26071903144758e-05
4.15431977351488e-05
4.2140273182795e-05
4.41586568222297e-05
4.7359673119917e-05
5.16464372552273e-05
5.68992664036045e-05
6.29798933898812e-05
6.97720184703759e-05
7.7168421498174e-05
8.4866151871147e-05
9.29093863569302e-05
0.000100832642307334
0.000108405387515749
0.000115584476303135
0.000122625525530342
0.000128864664797486
0.000134695867583292
0.000140156913943109
0.000146201432192728
0.000151743995936089
0.00015765095323636
0.000163910983003178
0.000171140080672007
0.000177647940811432
0.000185361103032893
0.00019477476430738
0.000204047546441312
0.000214208837279189
0.000226793918412685
0.00023988647093921
0.000253730352465866
0.000271203940377477
0.000288309795462141
0.000307573287477725
0.000327272231677662
0.000348847220152436
0.00037123707828927
0.000393953241709527
0.000417518430616644
0.000440765772852939
0.000464499091677488
0.000487816156034779
0.000510883671849951
0.00053231570985481
0.000553314237766979
0.000572859615421248
0.000591373234525633
0.000608352957089633
0.000627935712534144
0.000637736880554581
0.000630410546779884
0.000616362558011203
0.000599480583197629
0.000581731414520153
0.000563632403834533
0.000545663224064854
0.000527878128633666
0.000510557289195353
0.000493741043063262
0.000477576353935096
0.000462147997960179
0.000447411786706374
0.000433441396719124
0.000420236995846134
0.000407742531087978
0.000396005952755498
0.000384972112385558
0.000374598445844526
0.000364854842994127
0.000355721031324181
0.000347162107466295
0.000339137282375858
0.000331625790485837
0.000324542405666414
0.000317934169382917
0.000311719673784998
0.000305894713429318
0.000300407097983432
0.000295252617371176
0.00029043847837779
0.000285872540811171
0.000281577934738609
0.000277531620705157
0.000273716551031854
0.000270114460934245
0.000266720747873864
0.000263475070672771
0.000260460503562106
0.000257552602130836
0.000254826937442491
0.000252237744395177
0.000249779455707773
0.000247443340195079
0.000245221379594034
0.00024313242395508
0.00024111637864431
0.000239200986545148
0.000237401059385725
0.000235699588538697
0.000234035184063266
0.000232637307469105
0.000231074966836601
0.000229266374747498
0.000289517712519033
0.000286998586940841
0.000282978367408526
0.00027779949433616
0.000272150765717256
0.000267486771274444
0.000264780548388998
0.000264452441313515
0.000266457894244465
0.000270488407760535
0.000276194694560271
0.000282862401863562
0.000290562707774939
0.00029842219946854
0.000305768937027242
0.000312179685583168
0.000317298753407436
0.00032041705085105
0.000321058270169498
0.000319758963260662
0.000315284753143824
0.000308825745135453
0.000299619586448885
0.000289912321046527
0.000277297152526211
0.00026313798789196
0.000246984665110822
0.000228642098165383
0.000208891266811551
0.000188668768967178
0.000168488784315524
0.000149136933174078
0.000130976163757753
0.0001143978602525
0.000100210638906412
8.83513148671453e-05
7.95779477739061e-05
7.41176065943571e-05
7.21305960481538e-05
7.31459179068322e-05
7.666025592963e-05
8.23861989807326e-05
9.00640099162647e-05
9.94462439097253e-05
0.00011032855483342
0.000122534764918335
0.000135665397591894
0.0001497060588119
0.000164097046371533
0.000178474417470509
0.000192725454711554
0.000207194461563714
0.000221144189890581
0.000234995655156041
0.000248874904319152
0.000264089744439957
0.000279327917084054
0.000295420256818046
0.000312339823112774
0.000330803675397379
0.000348301186355854
0.000367127430545495
0.000388332213311608
0.000409141386894334
0.000430701274693454
0.000455555263754038
0.000480945840866787
0.000506936154444504
0.000537841082016309
0.000568132671300011
0.000600933515369838
0.000634155221750788
0.000669609727001779
0.000706022844096257
0.000742555845911789
0.000779915520089336
0.000816593583113957
0.00085357127625261
0.000889781342619316
0.00092536367936807
0.000958528300980972
0.000990719564654042
0.00102080615964025
0.00104920844910809
0.00107532407401688
0.0011046097296029
0.00112137048288056
0.00111419995367874
0.0010951611431388
0.00107039917460885
0.00104326848793193
0.00101493201378484
0.000986254486048642
0.000957461138976096
0.000929004942435802
0.000901022058770421
0.000873763642349219
0.000847404646681302
0.000821935879154867
0.000797489132407962
0.00077410523339364
0.000751738264949827
0.000730475636322358
0.000710271012579659
0.000691083756445185
0.000672884171864064
0.000655655231154865
0.000639359574650087
0.000623947900263583
0.000609397195916173
0.000595590317999712
0.000582588824551345
0.00057028538509673
0.000558671319522619
0.000547672211030318
0.000537275293683648
0.000527490445345844
0.000518189731121784
0.000509393908950154
0.000501067217928495
0.000493182242450302
0.000485708717656858
0.000478636953530847
0.000471876767076509
0.000465535177207206
0.000459443599046579
0.000453693023891056
0.000448221053473753
0.000443015393188186
0.000438059449495422
0.000433336925915387
0.000428870821964797
0.000424579184980403
0.000420489773196995
0.000416620643565177
0.000412950321326353
0.000409397815338726
0.000406226354891275
0.000403091471406035
0.000398799084609301
0.000417003060986642
0.000414071604887743
0.000409032485674545
0.000402133137100486
0.000394091283901299
0.00038665096574806
0.000381209796361357
0.000378622746354902
0.000379187423855413
0.00038280589060964
0.000389233900549769
0.000397635697236519
0.000407937860615792
0.000419225837157214
0.000430701607578842
0.000441763120162696
0.000451873330706656
0.000460119796071908
0.000465777534928609
0.00046920030117786
0.000468896272138457
0.0004659294650063
0.000459310054192599
0.000451514834987655
0.000439767660403996
0.000425398325817115
0.000407659551502374
0.000385916089688934
0.000360716673438492
0.000333011229399815
0.000303357484129586
0.000272850329065641
0.00024194934540204
0.000211623716652763
0.000183522390395865
0.000158027549264432
0.000137059647876905
0.000121604837957188
0.000112290088460079
0.000108421154361031
0.000109085987044266
0.00011364545990487
0.000121569589141551
0.000132425866662543
0.000145880859242758
0.000161664266143386
0.000179309539985073
0.000198698446768338
0.000219237617409612
0.000240450551791987
0.0002621046563785
0.000284501205813143
0.00030696378504111
0.000329854026367291
0.000353375153559914
0.000379039073302299
0.000405710418031332
0.000434069272574166
0.000464079386852695
0.000496452353800622
0.000528220543745389
0.000561360128938715
0.00059736115544933
0.000632972107191447
0.000668959307101169
0.000708565125194325
0.000748758209677392
0.00078914450142467
0.000834914861752791
0.000880064384526787
0.000927598677432104
0.000975490541350201
0.00102563084191644
0.00107679706467859
0.00112785792733735
0.00117957255593705
0.00123030495713209
0.00128104036879447
0.00133070790948406
0.00137936572601089
0.00142502143526271
0.00146911847031473
0.00151057748050059
0.00154972317648898
0.00158591905885571
0.00162528043663439
0.00165055245483588
0.00164725297816028
0.00162726439705991
0.00159826125596454
0.00156484139831197
0.00152893105612082
0.00149184309852154
0.00145404799958939
0.00141618226078362
0.00137850576337735
0.00134137864502817
0.00130507317616894
0.00126963836918898
0.00123526938460982
0.00120205961352825
0.00116999281855637
0.0011392010493416
0.00110966408313751
0.00108135926796694
0.0010542714103905
0.00102839863278004
0.00100371376915979
0.000980172698917525
0.00095776066698717
0.00093634577131709
0.000916006720360908
0.000896624178050716
0.000878191966803156
0.000860623994806456
0.000843904852506767
0.00082805064619464
0.000812909138954711
0.000798501602328813
0.000784784216329275
0.000771722531638686
0.0007592781810964
0.000747438593935826
0.000736089699777024
0.00072535885106695
0.000715040892536481
0.000705239958342069
0.000695879547853014
0.000686941575352726
0.000678402602907727
0.000670238898490061
0.000662476339115326
0.000655014239141187
0.000647878995523451
0.000641092660993525
0.000634623870729586
0.000628390597572408
0.000622629639970022
0.000617293761677873
0.000609331516614697
0.000554130355428383
0.00055096575686782
0.000545234084966534
0.000537041332739167
0.000527030722440895
0.000517044421284952
0.000508729477627591
0.000503292837864892
0.000501404111600658
0.000503286239329659
0.000508944642705045
0.000517627546050216
0.00052919082449448
0.000542752018756945
0.000557433688560329
0.000572529193479313
0.000587370659297406
0.000600893915157177
0.00061219010395998
0.000621404714795765
0.000626871385772907
0.000629443969139975
0.000627961949843795
0.000624868665152133
0.00061721799819095
0.000606193508983639
0.000590788824017202
0.000569925690036321
0.000543738141537915
0.00051288529254387
0.000477637679399677
0.000439009444832485
0.000397201909691509
0.000353213624435414
0.000309412530602022
0.000266447022246151
0.000227678840337273
0.000195612674562054
0.000172423019015496
0.000157827433147697
0.000150683126531291
0.000149943147891985
0.000154640771872034
0.000164007079886844
0.000177476846326967
0.000194625097508245
0.000214899981433209
0.000238058177299765
0.000263482264791831
0.00029061100140155
0.000319078114358191
0.000349029904119588
0.000379860394071758
0.000411811790553943
0.000445095425408208
0.000481244499406853
0.000519495590822615
0.00056042647085269
0.000604021022431366
0.000650955297179171
0.000698183880811063
0.000747028267173689
0.00079913245801013
0.000851210478669574
0.000903391145852086
0.000959153403907573
0.00101563600768267
0.00107191699188826
0.00113341125206674
0.00119445015029732
0.00125750526923302
0.00132079165669437
0.0013861030153905
0.00145239740339593
0.00151836266208608
0.00158468694384478
0.00164975715304197
0.00171444784301426
0.00177777498593463
0.00183969679118468
0.00189817490723414
0.00195449690332087
0.00200771047154536
0.00205800649977511
0.00210475084895338
0.00215416356346709
0.00218872501280536
0.00219210916058842
0.0021749499003667
0.0021456024025832
0.00210954844608051
0.00206943991480579
0.00202704792848333
0.00198313316967378
0.00193852322127556
0.00189361980446934
0.00184889372682033
0.00180471491034059
0.00176120429936002
0.00171862141741609
0.0016771167022452
0.00163671517837921
0.00159759333799577
0.00155976597742276
0.00152323733135324
0.00148801499871194
0.00145411893868847
0.00142153953966359
0.00139024661588845
0.00136023973153784
0.0013313863556748
0.0013037827813263
0.00127730935783839
0.00125196727655424
0.0012276682717543
0.00120440000916923
0.00118218762747851
0.00116086619461713
0.00114046060682291
0.00112092500279037
0.00110222231479127
0.00108431101535565
0.00106717856738716
0.00105069517795635
0.00103500550066368
0.00101987801385661
0.00100542822868537
0.000991570258105056
0.000978282419213895
0.000965536821497444
0.000953304903693142
0.000941615430191166
0.000930353551387408
0.000919544041123798
0.000909215752516499
0.000899322527287867
0.000889800829950359
0.000880804642674761
0.000872766036673723
0.000860165112933013
0.000699151785518614
0.000695869636030112
0.000689690991027028
0.000680593954624708
0.000669116681196054
0.000657086053969576
0.000646239664285061
0.000637987308413696
0.000633283793308232
0.000632667620877431
0.000636453876590001
0.000644103270137777
0.000655576691150934
0.000670018049320038
0.000686586967476345
0.000704544103167455
0.000723148869918155
0.000741238557995311
0.000757783340910019
0.000772750457441163
0.000784359437909052
0.000793252067385565
0.000798149133301154
0.000801329463843416
0.000799778841299459
0.000794494314518343
0.000784271173552518
0.000767675099920517
0.000744424724978358
0.000714789350632639
0.000678618389169633
0.000636593259836002
0.000588440972029978
0.000534644063963338
0.000477825263558597
0.000418397600893619
0.000360504323469488
0.000307952852456136
0.00026512817412049
0.000233259934381481
0.000211878569151201
0.000200061691983279
0.000196540357441157
0.000200139642897853
0.000209935807534102
0.000225245020134532
0.000245346407893401
0.000269844103774596
0.00029806531571591
0.000329377867942585
0.000363292494630266
0.000399742999325335
0.000438146164340607
0.000478577280649303
0.00052117135217563
0.000567306942106201
0.000616594304288343
0.000669571912006258
0.000726273395367072
0.000787333543587631
0.00084992093472952
0.000914653227718293
0.000983039197481156
0.00105204970839157
0.00112115538051628
0.00119362913277674
0.00126701770465545
0.00133995955431355
0.00141754832365613
0.00149490400487567
0.0015738223380601
0.00165278450999505
0.00173338768810302
0.00181480819768859
0.00189566949722007
0.00197650788958852
0.00205581928198396
0.00213430846682515
0.00221111519818061
0.00228610469983697
0.00235730273591854
0.00242576274271667
0.00249067733534084
0.00255210044404845
0.00260941443668811
0.00266853730608013
0.00271257378257806
0.00272450902046307
0.0027132467648733
0.00268709410900284
0.00265198077283338
0.00261112928740957
0.00256671978165162
0.00251981139301499
0.00247142098047977
0.00242210043699153
0.00237243050748053
0.00232287648758122
0.00227363924762704
0.00222504256995312
0.00217729593154469
0.00213047321411843
0.00208479429052315
0.00204031415188322
0.00199706942096876
0.00195509570731656
0.00191443881768728
0.00187511123739244
0.00183710221024719
0.00180042896384228
0.00176496867180638
0.0017308342859469
0.00169791450580648
0.00166622071456916
0.00163566948912824
0.00160625552461094
0.00157801440269564
0.00155077813900212
0.00152457705677274
0.00149936818317591
0.00147511566746014
0.00145177902776469
0.00142934810747791
0.00140768510029205
0.0013869485139682
0.00136689103233642
0.00134763729622636
0.00132909705547196
0.00131124738493967
0.00129405848296675
0.00127749980439865
0.00126160334790205
0.0012462452863365
0.00123144869572153
0.00121725207007685
0.00120359149709559
0.00119043829891006
0.00117781974478364
0.00116677579267075
0.00114892024783962
0.000850928444359509
0.000847606136085081
0.000841150136850821
0.000831443668270881
0.000818931187407605
0.000805381404818605
0.000792529368436117
0.00078186081477595
0.000774492224177906
0.000771193819608028
0.000772562009981821
0.000778309689327097
0.000788609996578026
0.000802697160964833
0.000819855593970686
0.000839371237848881
0.000860498947022839
0.000882035120237695
0.00090288619763595
0.000922892820260083
0.000940204372555321
0.000955286116105123
0.000966779886856306
0.000976761285370058
0.00098218880770275
0.00098386717369243
0.000980437882440201
0.000970199298117365
0.000952520183715266
0.000927296691985496
0.000893963410976077
0.000852792673927497
0.000803018027792053
0.00074439803528266
0.000679434280909597
0.000608038891006081
0.000534407438795547
0.000462766276055867
0.000399029035505166
0.000346104435712651
0.000304970056014512
0.000275833748138577
0.000257911639752645
0.000250050904509604
0.000251105723503564
0.000260135055179397
0.000276151812149257
0.000298571719247378
0.00032659147294383
0.000359490925347609
0.000396667892100473
0.000437828538940736
0.000482352528715576
0.000530110797669109
0.000581084241285436
0.000636350656455999
0.000695776765911633
0.000759871618935376
0.000828723095266022
0.000902918243019437
0.000980014379936307
0.0010600372982492
0.00114415962494273
0.00122973585937165
0.00131569827730888
0.00140479122016999
0.00149502468339291
0.00158475308219541
0.00167838011856092
0.00177196791068715
0.00186666726164987
0.00196117926888029
0.00205684846438002
0.00215305429340228
0.00224845117876674
0.00234338768598301
0.00243650686160895
0.00252832398988
0.00261810639711901
0.00270564543835074
0.00278910329747882
0.00286927515010379
0.00294548661091025
0.0030176690942092
0.00308522281289211
0.0031534934078146
0.00320678895045189
0.00322836137208454
0.00322528298130383
0.00320528423463483
0.00317432632662093
0.00313598218876535
0.00309274149052527
0.00304593298179938
0.00299674614803075
0.00294587975325093
0.00289401906474133
0.0028417193773475
0.0027892644102413
0.00273704061246323
0.00268531669062216
0.00263422011043705
0.00258401295200929
0.00253479358425188
0.00248663480214014
0.00243960385992719
0.00239377517560727
0.00234918662129634
0.00230585074126718
0.00226380470467042
0.00222294308187423
0.00218339439131462
0.00214506215781824
0.00210796986696166
0.00207204416342358
0.00203728945937458
0.00200375237858356
0.00197126960579233
0.00193987785444567
0.00190954061354979
0.00188022625677584
0.0018518985832125
0.00182455152902301
0.00179804577973897
0.0017725499812791
0.00174781062326638
0.00172395894877976
0.0017009047212215
0.00167862580218242
0.00165709266528131
0.00163627520135925
0.00161620880244711
0.00159676566718601
0.00157796708436877
0.00155986306439533
0.00154237080347238
0.00152550807488149
0.00150914704050725
0.00149500332676278
0.00147165888825408
0.00100864395051092
0.00100533916375195
0.000998725956355891
0.000988623467012177
0.000975406459344968
0.000960780737949862
0.000946441944934406
0.000933877647989815