/*--------------------------------*- C++ -*----------------------------------*\
| =========                 |                                                 |
| \\      /  F ield         | OpenFOAM: The Open Source CFD Toolbox           |
|  \\    /   O peration     | Version:  v2006                                 |
|   \\  /    A nd           | Website:  www.openfoam.com                      |
|    \\/     M anipulation  |                                                 |
\*---------------------------------------------------------------------------*/
FoamFile
{
    version     2.0;
    format      ascii;
    class       volScalarField;
    location    "7000";
    object      omega;
}
// * * * * * * * * * * * * * * * * * * * * * * * * * * * * * * * * * * * * * //

dimensions      [0 0 -1 0 0 0 0];


internalField   nonuniform List<scalar> 
14000
(
930.880932189645
930.875810610278
930.865909581711
930.85465816162
930.893267454991
931.185610189176
932.064887659109
933.89987745513
937.091313372167
942.075191611696
949.350854543365
959.388465718078
972.858442310244
990.297509267717
1012.42395603484
1040.0941253129
1074.23006781282
1115.69673193884
1165.69074313665
1225.99901945731
1297.18145717488
1382.41690632482
1482.41155717293
1601.42156995088
1735.91483427519
1889.5849265312
2058.26002159043
2238.70169612673
2428.38407724409
2623.05928215657
2816.80692769997
3005.07868495079
3181.16524958377
3341.56463299336
3485.7197524332
3608.22012767931
3712.26531633214
3796.40958708967
3861.17999808602
3903.710813745
3922.75936015696
3918.61985245041
3891.9321417988
3844.11163574597
3777.07543010433
3693.22712163113
3595.13808905908
3485.26059944826
3366.60330208904
3241.27747913948
3111.57135012601
2979.15030473022
2846.74076162777
2714.87941378186
2585.37515225382
2458.55165420389
2336.68120151614
2219.37098849277
2107.62822896545
2001.52352208069
1902.14403301821
1808.40173906524
1720.44965610077
1639.03743445035
1563.32993470389
1492.78808032224
1427.95559317138
1368.37810570833
1313.24418827509
1263.19555591778
1217.40191378535
1175.84167961527
1138.10766470119
1104.16541390514
1073.82851297972
1046.82646220654
1023.05860980229
1002.29221220903
984.456964223355
969.408727239712
957.026401767901
947.160807700522
939.744110365304
934.654633245051
931.793744493527
931.076983902129
931.247377460022
931.243509674719
931.256467269332
931.263715484458
931.271311262137
931.274741562202
931.282348133134
931.28529828296
931.289910678165
931.291078376503
931.292520417726
931.29524505432
931.294478262254
931.293765219646
931.292593973808
931.288381778027
931.285480617883
931.282165771292
931.277576345651
931.271835225337
931.265930883876
931.259953067544
931.253708736831
931.247713837369
931.238586339167
931.2312300068
931.222799847682
931.214421960104
931.204540892405
931.194612695721
931.186998527327
931.177145015238
931.166959736581
931.156819554929
931.146638263238
931.136377869801
931.126530781771
931.114247885765
931.104976428354
931.093360928524
931.082386052611
931.072211569788
931.061930649372
931.051720507988
931.041665051252
931.033338647948
931.024054798757
931.013538770967
931.004952243733
930.996542335397
930.987700138489
930.980250416713
930.971753870258
930.934150834813
166.209218136805
166.811295909945
167.058205310839
167.128190207601
166.986513613841
166.460748727369
165.876129181568
165.443857409882
165.287473078666
165.503536907855
166.315509991637
167.828493149264
169.962968073542
172.90317422607
176.727308490949
181.561183957716
187.585744453372
194.993816672947
203.956968022367
214.715456137199
227.594954547897
242.850330426602
260.895689270421
282.164461119757
306.791840077891
334.800049195322
365.967218522305
399.682622693453
435.264975494053
471.950497104503
508.800841860158
545.130852189129
579.577307120762
610.693624392259
637.596994434463
659.950422722471
676.640787086514
688.254381773931
695.226676497951
698.643678801042
698.443389772855
694.401949163763
686.869934667808
676.067764322001
662.259600279375
645.736600936065
627.203500178261
606.56135621963
584.883367811504
562.148956295113
538.76257869012
514.785567492325
491.262753105209
467.69215965569
444.777551665812
422.182986539855
400.864641548064
380.275061326182
360.831700979888
342.324724006
325.227635759706
309.060288264693
293.842401668881
279.870973786483
266.88946550606
254.720481095238
243.547451917645
233.34463387943
223.78604273728
215.208370592154
207.320629542339
200.17184908528
193.655460307281
187.786307197473
182.541204287882
177.855596823663
173.744155316926
170.137578075703
167.056761466198
164.459051059986
162.361353986461
160.690600705304
159.491113033722
158.703438326114
158.345643206098
158.295173341083
158.775349811794
159.50903083231
160.05223324874
160.571323855118
161.050820985322
161.504451583335
161.925950100728
162.325674533422
162.693195717939
163.03657002105
163.350549647253
163.638488881193
163.90516926637
164.14548330756
164.364758145851
164.565747694063
164.744539963037
164.908620369071
165.057671848537
165.191885184832
165.312465042988
165.421643927414
165.520713795905
165.609709678889
165.692824793629
165.762682856297
165.829875232264
165.888933430684
165.943805816062
165.991553207956
166.033580345071
166.077120421957
166.11226155558
166.144812790388
166.174624321826
166.201881216026
166.22615574305
166.25133944076
166.266639174535
166.290930983568
166.304444141628
166.320907864848
166.335872224854
166.349376327486
166.361795728053
166.371703957971
166.386408240295
166.395247937621
166.40302263637
166.412230486567
166.426162112529
166.415112059082
166.515670177935
166.411945581322
65.2120527547438
65.1633807828178
65.1414840933868
65.0624146143196
64.9003453012511
64.6641685456225
64.3526207011421
64.0242298506636
63.7529015794303
63.6111833770747
63.5519598192342
63.62016007464
63.8976493733373
64.5154713133538
65.5082068106948
66.898577925181
68.7461196134729
71.1482508912693
74.1748425880339
77.8259374988855
82.3639932680539
87.720330887773
94.1787888036208
101.65199287487
110.659422027772
121.01483019538
132.870906981784
146.195420693754
160.726466370519
176.173000384514
192.282423399427
208.077275499916
223.247120332557
237.402044109312
250.022216229693
260.309686578077
268.023564573187
272.727826354453
274.675496221384
274.177742367078
271.751549567
267.75191102574
262.366340508445
255.809740918165
248.24930900758
239.867172814657
230.776555052218
221.202705237511
211.224381756638
201.021192559192
190.694928401429
180.435865386643
170.361049208754
160.635765122997
151.331982942662
142.578815895917
134.402715833493
126.817699954367
119.77399790519
113.266704650118
107.272307857921
101.705083610213
96.5541477830619
91.8279304738062
87.4596397336725
83.4165629656069
79.7251674549414
76.3334599659052
73.1667775768021
70.3037784693975
67.6523618161584
65.2706189208077
63.0914718736187
61.1406037425287
59.4123306881129
57.8702796353147
56.5420042959795
55.379905082981
54.4107326601375
53.6052744882837
52.9962612380477
52.5220260622126
52.2273927377729
52.0673091255252
52.064091892746
52.0904449221072
52.4951929793397
53.2678124469283
53.9681442111482
54.6355910951185
55.2691064055289
55.8837658845509
56.4728293283207
57.0450740475027
57.5911224471702
58.1154295645606
58.6129202548917
59.0829563077817
59.5301070438122
59.9495811302195
60.3430256300767
60.7139316846955
61.0578792845306
61.3795319698463
61.6802259461785
61.9602589765366
62.2199779856804
62.4610236748731
62.6853177207539
62.8926411194338
63.0884944793413
63.2659579020925
63.4328906869182
63.5869514688983
63.7314338818344
63.8647453029334
63.9858126918542
64.1030847374723
64.2102944064483
64.309860114559
64.4024964846605
64.4892729974178
64.5691319335419
64.6478327341798
64.71401088107
64.7837683754872
64.8439259363432
64.9017120742633
64.9563392060476
65.0076229739061
65.0560875322098
65.0991111023924
65.1444272857982
65.1848320125404
65.2215318097466
65.2542864104805
65.2952514199187
65.3043118469145
65.3551117986789
65.353153345852
37.6172552057705
37.7439257874442
37.9465611895549
38.1866183068282
38.413126311149
38.5482095547604
38.5323377547968
38.3635909970875
38.0830227494324
37.7537419871417
37.4081542754239
37.0517165489068
36.7427202811044
36.5770435128193
36.5997111792311
36.826889955685
37.2830375013526
38.0239593327027
39.1027899994183
40.4807207736981
42.3285851648889
44.5684037437454
47.373702507063
50.5822263502077
54.5849376383324
59.2873713568515
64.8469768091946
71.3971019556876
78.9140376928095
87.3209194253035
96.6112327056722
106.495177116669
116.787933120863
127.427774637442
137.989449472639
148.062982209348
156.93110239757
163.745567386085
167.902518418711
169.388833157783
168.719832574747
166.357542742823
162.63755232758
157.869815349805
152.317572543237
146.136069655125
139.52190141993
132.587879233898
125.438001047069
118.198856282054
110.923106308387
103.630729118562
96.4633298072817
89.5166045925516
82.8698717936701
76.618731065592
70.8833904408319
65.6985997439915
61.0361778944396
56.881835739201
53.2137649899513
49.9295662235217
46.9829091400214
44.3808210682564
42.0411930235045
39.920952098967
38.0374745466858
36.3445060343382
34.7583542048631
33.3715954441637
32.0966133271689
30.9712474102799
29.9496370885658
29.0461923044616
28.2589366008352
27.5586570407044
26.9657591640671
26.4468209964209
26.0195801324863
25.6639097131066
25.4021900803846
25.1948231979165
25.0669816088061
24.99235303267
24.9843532799056
24.9572177211883
25.1209334410362
25.5415162996666
25.9797999369367
26.4118714544091
26.8300435745649
27.2437502922193
27.6504079880155
28.0554290381158
28.4540351165489
28.8480579901687
29.2343197486639
29.6108707499905
29.9797071255157
30.337537078713
30.6836220890861
31.0194307073849
31.3414039227619
31.650770706001
31.9479155986065
32.2326015334429
32.5042341802918
32.7629612117812
33.0095994104232
33.2434079119401
33.4681118682609
33.6790788752094
33.8802532961445
34.0704660526471
34.2517778882576
34.4234730030307
34.5837500180862
34.7382454172161
34.8840657812401
35.0220786425996
35.1525938787239
35.2765643562829
35.3930310642868
35.506695953334
35.6096130753378
35.7118121769033
35.8062309028223
35.8962578994863
35.9819513176289
36.0634124745818
36.1412129521727
36.2129798718525
36.2840512205494
36.3508988405748
36.4133907888702
36.46985037545
36.5314085803662
36.5667853336488
36.6342282415112
36.6668567513417
25.050185609082
25.2055291836317
25.4517529076025
25.7807958986807
26.1595435004594
26.5005200619857
26.7269448051053
26.7978095077522
26.7119353935754
26.4999225304766
26.1922067900745
25.8304912608434
25.4356555952433
25.0753522631582
24.7940349484502
24.6136636023986
24.5520035666831
24.6426996348571
24.9228353163246
25.3643101760056
26.0625636438018
26.9682431073592
28.1761864381945
29.5643599581787
31.3481859942891
33.4834526819263
36.0711655924121
39.2335936993253
43.0246838415624
47.4692160238671
52.6516133554914
58.5700023932647
65.2660534300663
72.8791647383835
81.2532797486145
90.3730571508181
99.6282679507648
108.176437153089
114.957699707517
119.461976783767
121.769190988321
122.129823852939
120.85660066994
118.277267055636
114.714749658092
110.362988805589
105.500774148111
100.232875842569
94.7263041087922
89.1097781336652
83.452864611057
77.6933283033614
71.972001134381
66.3294969477996
60.8463700566378
55.5586315661708
50.6517060079359
46.193179462458
42.2042720950376
38.6813648098595
35.6415116951393
32.9960558923476
30.670706129164
28.6833221951981
26.9526751398963
25.4199044827594
24.0922407224659
22.9354746345836
21.8658529661619
20.9557247902462
20.1352374132026
19.4203665892317
18.7814712296822
18.2205092574934
17.7374550202954
17.3098263998349
16.9486770049229
16.6327291033585
16.3705336529531
16.1496945791388
15.9821542664055
15.8453797422973
15.7509617179757
15.6846790934473
15.6527357522952
15.6054317564071
15.6498181632159
15.8420587831236
16.0663905499651
16.2944227486408
16.5166231060405
16.7371435800498
16.9555130489916
17.1751638416335
17.3944453260234
17.6145889194174
17.8343479731513
18.0526604442179
18.2705772107708
18.4865240207425
18.6998388053177
18.9111523675023
19.1184264340152
19.3218388525535
19.5213318726621
19.7165780378033
19.9069457148983
20.092113017181
20.2721961253445
20.4464306541595
20.6167055104322
20.7802984843284
20.9389179207146
21.0917279324061
21.2397082568365
21.3824118771541
21.5184113550464
21.6506531250473
21.7776873651738
21.8998334140405
22.0170879907608
22.1299122579822
22.2376063626961
22.3430143373977
22.4414625861416
22.538475379513
22.6302779993535
22.7185631360265
22.8033535964373
22.8847490208637
22.963141751068
23.036975599015
23.109282835386
23.1783928363775
23.2439529110851
23.3047615767781
23.367224311822
23.4134307293701
23.4756298352158
23.5272038814754
18.057632051637
18.1787539792637
18.3785689378369
18.662237359646
19.0177436807506
19.3853816709494
19.7019925472515
19.9180109093163
20.0073996601938
19.9700692541451
19.8156484508411
19.5810326339316
19.277705780512
18.9525349468502
18.6420698769227
18.3696316038516
18.1528126543074
18.0159226174275
17.9854101367548
18.04634891362
18.25259714075
18.575521161188
19.0659048746187
19.6459302107445
20.424523264243
21.3753616947423
22.5501870871805
24.0223777986979
25.839010949826
28.0370991908165
30.697331043074
33.8800654026179
37.7045442427141
42.373632551026
47.9452683908882
54.6643644118876
62.3075329961591
70.3847543898717
77.9326063682522
84.2117038196945
88.8689624362291
91.7802773068936
93.0323440823452
92.8246958461193
91.4251363859916
89.0287551240319
85.9289202016752
82.2571116856447
78.2137987144417
73.9469024848218
69.5591549442557
64.9977906766317
60.3764035270608
55.720777462999
51.1033291188512
46.5352021265661
42.1953154272907
38.1807757084517
34.5523265529646
31.3270395950987
28.5458045288919
26.1521056894223
24.0682378265214
22.3067908430088
20.8023700445725
19.4921119324039
18.3698486735474
17.4125086643894
16.5450243991645
15.812266362407
15.1645756121458
14.6033548299118
14.1083962306346
13.6751925225868
13.3031859455843
12.9753354035947
12.6964330501455
12.4523498013909
12.2464077370067
12.0704277919102
11.9304507897532
11.812887993014
11.7227996037409
11.6517366956552
11.6022282434867
11.5439804402533
11.5341513614259
11.6127925176256
11.7205396939916
11.8349926521545
11.947232223326
12.0583586318959
12.1682450463482
12.2790538381778
12.3903319735813
12.5029943968298
12.6166532731758
12.7308594755581
12.8462964547993
12.9622874904306
13.0785071897089
13.1953438478822
13.3117439739568
13.4277290594585
13.5432342145588
13.6580648353065
13.771823963961
13.8842397366522
13.995275546664
14.1043957010337
14.2125677608398
14.318234426396
14.4221758292151
14.5238227413245
14.6236222468576
14.7212709131062
14.8158129460391
14.9087586480678
14.9992814999485
15.0874798068885
15.1732597777435
15.2567962551958
15.3375964443975
15.417263978392
15.4930713556225
15.5680650985817
15.6401032783148
15.7100658514027
15.7779103825247
15.8436645615085
15.9075375600156
15.9685605203702
16.028407188667
16.0862114696972
16.1416070699028
16.1939843957379
16.2465382117745
16.2898937569248
16.3392771127512
16.3914204662275
13.7597961644815
13.8469291910509
13.9942302940463
14.2102915641505
14.4941748302221
14.8115157032166
15.1205022962679
15.3810113354335
15.5624154586344
15.6489983476015
15.6334209093161
15.5345592663815
15.3581654457317
15.1336888619811
14.8884073687196
14.6430421551525
14.4144370615988
14.2227003237597
14.0885505079728
14.0057476009021
14.0081363553679
14.0794775133997
14.2490342185886
14.4679829025491
14.7933115850539
15.207181460768
15.7342048891072
16.4136055064846
17.2730445910693
18.3360078621642
19.6530616697234
21.2707953638282
23.2907560047709
25.8556080885055
29.0820725358605
33.2632528198938
38.461480639465
44.5837168567017
51.0822782103041
57.3688318581913
62.9561684679392
67.4527064187622
70.6665735340584
72.5657153610679
73.2490541836521
72.8234324159782
71.5217403728977
69.4697094409614
66.8697624915999
63.8811850123338
60.6339157811019
57.1197382339328
53.4366125007979
49.6148444491034
45.7223396800452
41.7708446920826
37.9093681216755
34.2517929173494
30.8870256107083
27.8567538624203
25.2150506218259
22.9400181279917
20.9664528637404
19.2967089957632
17.8817368625365
16.66279223702
15.622593830062
14.7433056202193
13.9615999111351
13.3000879066617
12.7232217801828
12.2245356741519
11.7884389743457
11.4074792153634
11.0797243811391
10.7918334986543
10.5447578297788
10.3282960259385
10.1429005758132
9.98255611135951
9.85000337084633
9.73630874414681
9.64333947796217
9.56544675573539
9.50327990941264
9.43708553344764
9.3990038114843
9.41698943456314
9.45878425735432
9.50814618636841
9.5575250785777
9.60651409968172
9.65485924862465
9.70389759020474
9.75356846191135
9.80454120791667
9.85674215767713
9.90999094029736
9.96475347190001
10.0207303858093
10.0777703942368
10.1361380680639
10.1952655679838
10.2551560400249
10.315776055945
10.3770216600085
10.438658919336
10.5005105610017
10.5625283057686
10.6243668364895
10.6865645804834
10.7482016224724
10.8096757091349
10.8706166062176
10.9312443107818
10.9913553471485
11.0503285505239
11.1089893126839
11.1668319230388
11.2238702565535
11.2800086275792
11.3353039772833
11.3894155623281
11.4432693131669
11.4952054784366
11.5469853636952
11.5973177242254
11.6466781197372
11.6950049497726
11.742284793262
11.7886149338434
11.8333745569684
11.8775180581446
11.9205523845466
11.9621391550629
12.0020189427338
12.0417074706135
12.0763257365027
12.1126044464508
12.1557709636692
10.9175727043965
10.9808923381196
11.0889138397851
11.2496689195439
11.4660017138558
11.7186842681764
11.9823912261016
12.2299209287172
12.4363543662542
12.5831792799503
12.6556391307699
12.658580725329
12.5909086631262
12.4684112639113
12.3093522587787
12.1293471428042
11.9425422060947
11.7657931938297
11.6161545637361
11.4922454599869
11.4180682228407
11.3847075728857
11.4111536068056
11.466054332271
11.5820575075833
11.7468550199729
11.9724654135789
12.2802530704692
12.6854821909168
13.2007423456079
13.8542217444416
14.6725736661473
15.7187845566341
17.0793601248653
18.8336210857988
21.1951884146371
24.2972325981248
28.2426428596692
32.8600659987044
37.8806881294339
42.9793881626334
47.7662757930748
51.9188072219867
55.2125095834735
57.5446321091971
58.8633792352446
59.2708489206261
58.8218548885145
57.6759988570433
55.9749935708922
53.8530753824478
51.3416498851017
48.5392402218087
45.4878382773069
42.2569924337809
38.8706705519437
35.451894618603
32.1197030984735
28.9821867605694
26.1056447874006
23.5550337526126
21.3397638902562
19.4154795469909
17.7774210438726
16.3897976213692
15.2019222387285
14.1889071449531
13.3342147558554
12.5857734119985
11.9499710541732
11.3999875067955
10.9251496637434
10.5120504971841
10.1517663216648
9.8408512272069
9.56834948236589
9.33276500989112
9.1260926060651
8.94709638304618
8.79088435695486
8.65819474780598
8.54266483797574
8.44447289670209
8.35942083065089
8.28711546290064
8.2139911339534
8.1584146529166
8.13974856804574
8.13995514899796
8.14770217200396
8.15696691534008
8.16671027396117
8.17652170767088
8.18719881905142
8.19878639793301
8.21176441574642
8.22616267439775
8.2419072938758
8.25931469861517
8.27823747990346
8.2985923079445
8.32055337114551
8.34378174937183
8.36826667120888
8.39398180436689
8.42085892518652
8.44874462589759
8.47751525262374
8.50712350677421
8.53733622897678
8.56846948943032
8.59994484309987
8.63197846006848
8.66432266011117
8.697091052714
8.73014176799609
8.76305930054064
8.79632572032528
8.8296145931035
8.86290763016414
8.8961244055286
8.92927570263065
8.96212352432254
8.99522864186193
9.02753050479403
9.06010244464223
9.09212548053207
9.12386690158112
9.15526743700654
9.18629899305271
9.21700154897515
9.24696051050678
9.27674529985736
9.3060560895107
9.33459919465595
9.36228594233905
9.38981183203056
9.41456355726858
9.43945245455936
9.47084384055198
8.92762312654521
8.97503763194849
9.05601500147115
9.1770633888586
9.34160239757281
9.53825774743724
9.75170027971847
9.96471724333567
10.1599963784051
10.3222666099672
10.4364570809527
10.5004518425039
10.5079946358615
10.4661710436232
10.3848828702224
10.2740544333736
10.143959438831
10.0079219815645
9.8797853873677
9.76033575708178
9.66803657977689
9.59818435583142
9.56457224826193
9.54636747355472
9.56447295341312
9.61050591104637
9.69095735214183
9.8184582970871
10.0019489678333
10.248315717503
10.5735435655712
10.9922762790563
11.5409090386019
12.2708946912927
13.2239551774725
14.5264683719766
16.2771447473043
18.5941837886335
21.4752181298239
24.8752293734555
28.6944449648764
32.726073575276
36.7253939211062
40.4414220130242
43.6642561864036
46.2038459677874
48.0088050145927
49.0100389510438
49.2714257903259
48.8714548801909
47.9097288100458
46.426372078752
44.5209194529028
42.245453529349
39.6742121913489
36.8470950707576
33.8730056249873
30.8703416363944
27.9594718348341
25.2291300956765
22.7561813283062
20.5772003619623
18.6728722690078
17.0373031413645
15.6455060228677
14.4567015086953
13.4419999153961
12.5842730215517
11.8410732376923
11.2075345085131
10.6618669726657
10.1911077684687
9.78282945036083
9.42726172524566
9.11952346905971
8.85014132431837
8.61597110067758
8.41024297159603
8.23064249995119
8.07284894944959
7.93627776840276
7.81604924768946
7.71137481569828
7.61884384436668
7.53743300511038
7.45746655656532
7.38908647133541
7.34544486626944
7.3164872220838
7.29460838586148
7.27525314147788
7.25723554884624
7.24006497632658
7.22418798381806
7.20965459539913
7.19679817538758
7.1856690847523
7.17622779329059
7.16868029590826
7.16293517913379
7.15892624697088
7.15675487301523
7.15618941868053
7.15719824474514
7.15974439667125
7.16376484244938
7.16913926766937
7.17576525126123
7.18358957303853
7.19243780097026
7.20249524177837
7.21336964586959
7.22517578837467
7.23773484081844
7.25110085171451
7.26516565764022
7.27963545700623
7.29480309555822
7.3104444307792
7.32652676513107
7.34298169843062
7.35979908009703
7.37680604544603
7.39435649807958
7.41174002473313
7.42964015102263
7.44751293064648
7.46551239731327
7.48358630445987
7.50170280301116
7.51987328380315
7.5378092519141
7.55586447063239
7.57384677330566
7.59151029489058
7.6088411055914
7.62614157008048
7.64193278753194
7.65757471191541
7.67761199900984
7.47044164918169
7.50704593597856
7.56941957204304
7.66265992785026
7.78976973145248
7.94337915012412
8.11367105602072
8.28970617315279
8.46016133923872
8.6141833464294
8.73949901391179
8.83203032990262
8.88359215598898
8.8961522488195
8.87362285663922
8.82114707204629
8.74498835443727
8.65476788339223
8.56113839370972
8.46529874234827
8.38189020883468
8.30840555261305
8.25560228229813
8.20903153683014
8.1835442093558
8.17352315883734
8.18308293989776
8.22055986264572
8.29180636695454
8.40102180867385
8.55797956684694
8.77122291179004
9.06230399935896
9.46309384413907
9.99458525243132
10.7280547579869
11.7197782396613
13.0474643016531
14.7396347516107
16.8247823258151
19.3211548711751
22.1852312321447
25.3275156889924
28.609245861183
31.8638907686111
34.8798297367338
37.518058490127
39.5983744626787
41.0648269508484
41.8920480022204
42.0990197729422
41.6866680059718
40.7333813118324
39.2864754679171
37.4197274627232
35.185771740648
32.6898457380458
30.0489023971729
27.3910000590365
24.8241483671825
22.4388691632119
20.2954211797811
18.4012931105139
16.756025172739
15.344586253999
14.1370806935377
13.1040826521815
12.2274271866219
11.472637996868
10.827407613248
10.2726674724908
9.79418692100276
9.37992240841145
9.01954512397874
8.70688197168066
8.43332272981767
8.19454927336905
7.9844622736414
7.79999904702121
7.63709666950212
7.4942290380693
7.36738315909586
7.25517198278542
7.15461770288361
7.06428424511575
6.97706597796162
6.89788039294836
6.83528362563989
6.78390589726761
6.73893784227325
6.69715085380834
6.65748151500708
6.61944631533466
6.58327133363661
6.54898139889611
6.51679489543058
6.48674803254171
6.45880129111459
6.43307337935448
6.40948463459835
6.38796124533816
6.36854271316339
6.35104439869891
6.33540891544839
6.32157923327686
6.30948215562849
6.29900553535342
6.29004946502223
6.28254853255413
6.276355945997
6.27157135877177
6.26790646267811
6.26541134453078
6.26394363429421
6.26351802294915
6.2640425870128
6.26529539349429
6.26745482800948
6.27035535693222
6.27395545468704
6.27819289255746
6.28304511239072
6.28837912210075
6.29442356866352
6.30068097720782
6.30760057198618
6.31480469681961
6.32238151097783
6.33028456500418
6.3384811822652
6.34696745005952
6.35553425132338
6.36440782541126
6.37345824695401
6.38248282749876
6.39149541962617
6.40061299361119
6.4089222746396
6.41728319142571
6.42751775224946
6.3645729449316
6.39359831525625
6.44286875100711
6.51639983545644
6.61663373950777
6.73838607858023
6.87487017885834
7.01876999083623
7.16264351571408
7.29920727403452
7.41944576883096
7.51966852644921
7.59208503746919
7.63614803923705
7.65256382067691
7.64301822918873
7.61052157431859
7.56137354642043
7.50322886059369
7.43673626163619
7.37343460694881
7.31171143160077
7.26015572153885
7.20816709351356
7.16712644142607
7.13328597423226
7.10972736179547
7.10259650527812
7.11621677850346
7.15354521469242
7.22114932222517
7.3245305807775
7.47727635813217
7.70011487629669
8.00436758188061
8.43148101587291
9.01138497651499
9.78721194622665
10.7779334378679
12.0135054689026
13.5341528691726
15.3611307539704
17.5010561352654
19.9313818465125
22.5977234093627
25.3773407794871
28.1593505550698
30.7446245891192
33.0027105694106
34.8097214309702
36.0796021492518
36.7276895788205
36.771690269401
36.2224694861971
35.1343416432073
33.5594388788766
31.6025052039733
29.3795086232868
27.0234906968853
24.6583344783892
22.3896697941911
20.2988588226093
18.4204154904123
16.7654654936062
15.3296835808902
14.0948219787201
13.0342052103551
12.1292627607177
11.3521746099132
10.6861501335046
10.1135568506615
9.61947026049934
9.19195829232788
8.82029309772159
8.49717547232369
8.21443291964438
7.96686524494244
7.74869585128082
7.5563000924792
7.38568490032543
7.23461059962146
7.09955736205825
6.97873497021325
6.86939458577592
6.76980910869908
6.67462655915432
6.5852955208331
6.50691445849858
6.43693039625128
6.37261893491468
6.31190875983527
6.25400273013432
6.19849695436753
6.14549122811713
6.09498251504631
6.04709844784193
6.00184612778364
5.95916829747388
5.91911024108926
5.88158140601007
5.84648711123417
5.81381169191295
5.78338516228036
5.75512126157041
5.7289377094827
5.70474302241749
5.68241962597068
5.66185954922201
5.64298113264579
5.62564728444617
5.60989630376027
5.59549834700701
5.58245769411608
5.57064945695931
5.56005888313199
5.55059979900702
5.54209275038316
5.53464115235789
5.52811273979107
5.52245870664887
5.51761842446106
5.51355993099232
5.51017407575192
5.50760862798917
5.50550027621572
5.50414962049795
5.50328276305156
5.50294679581509
5.50309867942184
5.50370502464504
5.5047525922055
5.50608340651539
5.50784422745481
5.50994171922973
5.51220909620604
5.5146657163151
5.5173449336459
5.51960969861928
5.52229013987395
5.52444140693066
5.50072796195863
5.52427436877881
5.56404988443477
5.62327358380202
5.70391697451293
5.80213121439355
5.91290910045364
6.03102116549653
6.15134403902758
6.26897390605398
6.37752318934705
6.47432837052414
6.55298318543007
6.61214258160739
6.65115196093782
6.66971422694553
6.66872286225782
6.65190758943942
6.62440235766215
6.58597485649809
6.5455067674631
6.50151907156198
6.4607895755268
6.41498611527058
6.37318655280339
6.33281605828254
6.29644244326349
6.26900337545587
6.25401752374642
6.25385298455193
6.27334436556901
6.31641960834558
6.39230332064408
6.51502415339309
6.69165957395317
6.94760987373954
7.2989734917107
7.76874475769985
8.36481826176764
9.10471806387261
10.0178365580674
11.1312525653093
12.4757188832153
14.0782275314382
15.959128764603
18.0957212308527
20.4662764991924
22.9506505220784
25.4403762730351
27.7859021408943
29.8306794726539
31.3955869934689
32.4045058165113
32.7912402326697
32.5562393797896
31.7235938033197
30.3878553955703
28.6600959936196
26.6752847603608
24.5694026918679
22.4638157456203
20.4590868981189
18.6159637503365
16.9623690514055
15.506696358023
14.2432893495474
13.1513541662297
12.2133987277744
11.407420793585
10.7145932248885
10.1181402929663
9.60284782275427
9.15682010439802
8.76905516762243
8.43131069546717
8.13556876565153
7.87593649352859
7.64674134928201
7.4439066087591
7.26339290447235
7.10239258038024
6.95764113207226
6.82705060920905
6.70797682957238
6.5984736066923
6.49440464573376
6.39485023981438
6.30229390819109
6.21588751225672
6.13444689622487
6.05688100222069
5.98272428633116
5.91170384014902
5.84386190813338
5.77917568510662
5.71770134399681
5.65941074972458
5.60421906551987
5.55210659651812
5.50295902410373
5.45665284213451
5.41312116062826
5.37218977604868
5.33374129204648
5.29766500942406
5.26384641204614
5.23215450866354
5.2024669850554
5.17468333631123
5.14866543214874
5.12440421943354
5.10170181670901
5.0805272506547
5.06076179673764
5.0423666794199
5.02525511378426
5.0092723370177
4.99446926136474
4.98073179690082
4.96800410305798
4.95622406822825
4.945351479533
4.93529097166344
4.9261350399499
4.91760741534813
4.90990986075653
4.90283492017842
4.89640235404846
4.89057043383046
4.88530447109405
4.88058466161873
4.87628657493627
4.8725050073315
4.8691681984144
4.86613806171132
4.86342916361988
4.86104170959545
4.85846545164183
4.85669793786526
4.85229454625588
4.80975867944315
4.82923451293645
4.86194370921972
4.91051240985904
4.97655483669344
5.05712862284827
5.14838064080384
5.24635629874612
5.34730860201058
5.44779290057026
5.54324495283701
5.63191735252271
5.70889602351072
5.77287977462184
5.82284711289568
5.85774227435454
5.87727739704137
5.88346923211233
5.8795853523357
5.86460354853296
5.84518846368199
5.81964984596816
5.79317253831921
5.7587342386048
5.72364974281709
5.68599532088396
5.64797548218306
5.61375594696651
5.58636634642481
5.56786244673714
5.56207409381272
5.57205902420587
5.60453233545751
5.66943877211127
5.77166659215989
5.92784043381991
6.14698823882638
6.44150299140716
6.81298577764329
7.26964801680422
7.8283486571811
8.5069862742253
9.33049483984709
10.3291857599043