/*--------------------------------*- C++ -*----------------------------------*\
| =========                 |                                                 |
| \\      /  F ield         | OpenFOAM: The Open Source CFD Toolbox           |
|  \\    /   O peration     | Version:  v2006                                 |
|   \\  /    A nd           | Website:  www.openfoam.com                      |
|    \\/     M anipulation  |                                                 |
\*---------------------------------------------------------------------------*/
FoamFile
{
    version     2.0;
    format      ascii;
    class       volScalarField;
    location    "7000";
    object      p;
}
// * * * * * * * * * * * * * * * * * * * * * * * * * * * * * * * * * * * * * //

dimensions      [0 2 -2 0 0 0 0];


internalField   nonuniform List<scalar> 
14000
(
0.119359700376721
0.119118652704996
0.119836813513442
0.121229483332022
0.123332671577662
0.126232999157531
0.129515823226233
0.132964731352534
0.136420357668683
0.139699984016817
0.142722298152372
0.145190634385004
0.14719873189584
0.148338805801024
0.148598680073113
0.147812811177319
0.145721719238777
0.142070550243957
0.136598828023669
0.129307144375415
0.119031121117915
0.106453817097263
0.0896382379690981
0.0692300919209826
0.04172241027804
0.00892795864401168
-0.0319460442066924
-0.0807268055504747
-0.136534437939819
-0.19909191397427
-0.26756540005694
-0.339191350461665
-0.411729063224846
-0.48072911270895
-0.540942001849446
-0.592532692579452
-0.628495648844263
-0.652358434520937
-0.664381264560983
-0.669504117112483
-0.668209584560901
-0.66057446009231
-0.648323556036453
-0.631776425662345
-0.611805325981052
-0.588345303465385
-0.563233480564193
-0.535277986817311
-0.506874040947519
-0.477162306089364
-0.447449870548931
-0.417298717756978
-0.388705768079479
-0.360564073993833
-0.334465730246371
-0.309449165652447
-0.286789079410705
-0.265502051209678
-0.246164442925001
-0.22808334750497
-0.211629740693072
-0.196335744024308
-0.182061353447748
-0.168783130219216
-0.156353652014243
-0.144588298120332
-0.133401407788025
-0.122856211189449
-0.112612135061905
-0.102890943977594
-0.0934346020093317
-0.0843628801716947
-0.0755480780307438
-0.0670168024799382
-0.0587764175314012
-0.0507844857926471
-0.0431185501132807
-0.0357228709063846
-0.0287015570050132
-0.0220109015002253
-0.0157963736298029
-0.00998953381903222
-0.00478046567941029
-0.000102696682474507
0.00377734349668856
0.00703294245169979
0.00898525948370737
0.00994904447501165
0.0108476901965332
0.0112686835631817
0.011466706096714
0.0114504939174763
0.0112949007175954
0.0110068717009681
0.0106515916722185
0.0102285368138407
0.00977667921676198
0.00930546627995721
0.00881861518166314
0.00834356006497774
0.00787624964741406
0.00741899245549435
0.00699104662238957
0.00657630104135807
0.00618455376898065
0.00581752994679498
0.00547452900530773
0.00515369949957469
0.00485214675888407
0.00457545759105383
0.00430834702901373
0.00407658764495754
0.00384625751600823
0.0036399878894391
0.0034432189286585
0.00326300108723945
0.0030984268245151
0.00292822169105932
0.00278284241626183
0.00263962796158929
0.00250453850744124
0.00237313812186992
0.0022524214215991
0.00212207372021163
0.00202217009371913
0.00188959848667582
0.00179026185295745
0.00167452364653138
0.00156279503891242
0.00145236278571671
0.00133798515961025
0.00122891726642388
0.00110021852257222
0.000987232863965837
0.000857451347401836
0.000738922215526202
0.000553530074659515
0.00049730314625844
0.000135912383560492
0.000238904564141977
0.119359977948819
0.119120738156816
0.119841050369333
0.121235052793158
0.123338138054421
0.126237519166979
0.129519572950097
0.13296810221769
0.136423722786652
0.139703238564744
0.142724512746086
0.145190517709695
0.147193489485973
0.148324747045945
0.148571444131
0.147765783183567
0.145646345587475
0.141957383824826
0.136438756538024
0.129081859544479
0.118730053672659
0.106053183006242
0.0891188840062812
0.0685484219431629
0.0408690973175839
0.00789160182207558
-0.0331699897250475
-0.0820940995529774
-0.137996332752707
-0.200596579697828
-0.269033643425961
-0.340544662631593
-0.412886784423543
-0.481621368353795
-0.541572488605695
-0.592900612892491
-0.628656900687266
-0.652387633156289
-0.664341940640023
-0.669432390696528
-0.66812058576887
-0.660484869977436
-0.648245179770202
-0.631717150486478
-0.611771075452626
-0.58834037256188
-0.563260181049143
-0.535337622899044
-0.506964942708383
-0.477284090248508
-0.447600655951453
-0.417472791071498
-0.388898311201552
-0.360770811524034
-0.33468120245388
-0.309668095830963
-0.287006365938218
-0.26571608379377
-0.246372424903728
-0.228283663109423
-0.211820790859338
-0.196519050342405
-0.182235394377087
-0.168947752022607
-0.156510002495371
-0.144736341691422
-0.133540400269296
-0.12298766292977
-0.112735220067564
-0.103005722993022
-0.0935412526223496
-0.0844611090372648
-0.0756378461247178
-0.0670975671682745
-0.0588483039826467
-0.0508472198447132
-0.0431722326622181
-0.0357675733611043
-0.0287375619742529
-0.0220387561741982
-0.0158168499924988
-0.0100037298565478
-0.0047896914053461
-0.000108844784908778
0.00377222246864573
0.00702579297625171
0.00897582625913612
0.00994139212397743
0.0108407400057111
0.0112615189605011
0.0114596505878621
0.0114436539063934
0.0112882996551326
0.0110006464888921
0.0106457440635052
0.0102231216177756
0.00977167846442798
0.00930086249353494
0.00881444915982973
0.00833977603802882
0.00787282569268392
0.00741593587905626
0.00698828025977143
0.0065738241788385
0.00618235545180804
0.00581557948679577
0.00547278857587487
0.00515214976459843
0.00485077474845903
0.0045742394434951
0.00430730573278939
0.00407563139284411
0.0038454293871024
0.00363925169160776
0.00344258835785138
0.00326243111968725
0.00309789488806659
0.00292779494656259
0.00278245417537712
0.00263928308033683
0.00250422847358406
0.00237286474678131
0.00225217516444065
0.00212188597907981
0.00202193918689699
0.00188946215664572
0.00179008658024838
0.00167438311950486
0.0015626622990086
0.00145224652467558
0.00133787104119555
0.00122879208769486
0.00110014609563473
0.000987144952661139
0.000857332761060022
0.000738838886980647
0.000553402057220194
0.000497184493360304
0.0001357666608312
0.000239548955427662
0.11935430459049
0.119118118801031
0.119842560459301
0.121238117026222
0.123339433960199
0.126234716914364
0.129512520367803
0.132957089359927
0.136408970044496
0.139684226917048
0.142699950863994
0.145158477420803
0.147150318037692
0.148266213354359
0.148492521849889
0.14765922071913
0.145503384506213
0.141769237402081
0.136195959554853
0.128767393788494
0.118336014974778
0.1055562071404
0.08850505407338
0.0677802342778115
0.0399580479077682
0.0068305065216393
-0.0343597391100381
-0.0833547700156868
-0.139273793978299
-0.201831895186782
-0.270145586738703
-0.341464620024674
-0.413548547969105
-0.481991756382965
-0.54169487291731
-0.592797825969693
-0.628426559141325
-0.652105769072546
-0.664065433040655
-0.669174548418932
-0.667884257974869
-0.660278867399887
-0.648073550642615
-0.631582355797512
-0.611674878703889
-0.5882840446478
-0.563243151376591
-0.535359436868719
-0.507022226503975
-0.477375049139494
-0.4477227656063
-0.417619451100599
-0.389064906880071
-0.360951974623236
-0.334872289472647
-0.309863145113118
-0.287201144376267
-0.265908631573538
-0.246560675221772
-0.228465577459412
-0.211994955687274
-0.196687046026347
-0.182395473385815
-0.169099590826559
-0.156654989588682
-0.144874346842441
-0.133670302701715
-0.123111524321684
-0.112851758709633
-0.103115193914064
-0.0936436903685797
-0.0845564209936797
-0.0757260400652302
-0.0671781399213651
-0.0589215049487047
-0.0509128941645774
-0.0432306493608538
-0.0358189162744009
-0.0287823072309847
-0.0220775448869851
-0.0158508724768777
-0.0100342389655952
-0.00481862767108236
-0.000138064308506324
0.00373983692128781
0.00698776141654675
0.008936173410608
0.00990891126358501
0.0108128259819504
0.0112355389527603
0.0114361973288698
0.0114222598643446
0.0112688173057538
0.0109830515869384
0.010629855814804
0.0102088599252905
0.00975886216525151
0.00928935697821924
0.00880423559101055
0.00833064151655419
0.00786468298162891
0.00740873324230088
0.00698181460643643
0.00656807791320933
0.00617727892340953
0.00581107397960032
0.00546876296557171
0.00514856549594519
0.00484758396156378
0.00457140706422842
0.00430484572969679
0.0040733589794512
0.00384343947221282
0.00363746909051482
0.00344103149072071
0.00326099444285114
0.00309655921473257
0.00292669602007462
0.00278143429586385
0.00263835323255808
0.00250339142399517
0.00237210216067497
0.00225149347438199
0.00212131506049855
0.00202129404918729
0.00188902359821494
0.00178957148191339
0.00167394217152938
0.00156225581250071
0.00145187957612226
0.00133750961766747
0.00122842890823188
0.00109990139069613
0.000986894976786383
0.000856984253241572
0.000738703038161938
0.000553018052072754
0.000497295007442029
0.000134933502555678
0.00024337158804676
0.119336115138389
0.119105721650096
0.119836879784179
0.121234511546396
0.123331841811698
0.126217530605907
0.129484890331916
0.132919028276609
0.136360369382439
0.139623978274801
0.142625957925982
0.145068447717103
0.147038720421493
0.148128369018509
0.148322261650831
0.147448168775786
0.145242210427056
0.141449633825917
0.135808028828788
0.12829361048743
0.117772482886407
0.1048770409133
0.0877030328394787
0.0668197626420255
0.0388750457660901
0.0056208308101192
-0.0356461761978897
-0.0846408914166053
-0.140492743360187
-0.202908604757019
-0.270984826883368
-0.341995800713854
-0.413706753252112
-0.481772928763764
-0.541187057424941
-0.592053660648821
-0.627611667150266
-0.651317587333005
-0.6633732801743
-0.668570747021705
-0.667359482264835
-0.659834107785284
-0.647702765925715
-0.63128112074892
-0.611438959598966
-0.588111184298098
-0.563127213945937
-0.535298743310172
-0.507009053909405
-0.477405868033462
-0.447792717508541
-0.417720864510753
-0.38919147451495
-0.361096989287755
-0.335030864632569
-0.310028866289212
-0.287370253693016
-0.266078134059757
-0.246728689973761
-0.228629909329984
-0.212153733655067
-0.196841778795389
-0.182544637151207
-0.16924219018105
-0.156792276016265
-0.145006576091218
-0.133795851949465
-0.123232408366553
-0.112967126081841
-0.103224996368983
-0.0937481588932257
-0.0846555489307926
-0.07582019923308
-0.0672671286730882
-0.0590056871721989
-0.0509925516386968
-0.043306337160477
-0.0358914277040055
-0.028852926285896
-0.0221474322392938
-0.0159217048236772
-0.0101078020538434
-0.00489774503088652
-0.00022477891718003
0.00364189971810212
0.00687548606491112
0.00882194534458512
0.00981151256077928
0.0107274174221461
0.0111576683052638
0.0113664575274481
0.0113592346885519
0.0112118897608098
0.0109318653315294
0.0105837876472737
0.0101675425249331
0.00972175163430699
0.00925602177808404
0.00877449416179235
0.00830394657220259
0.00784076005743352
0.00738738901632178
0.00696256526050885
0.00655082365088199
0.00616185067951374
0.00579722130296617
0.0054562663936829
0.0051373090939299
0.0048374353042899
0.00456225290900972
0.00429669813131382
0.0040658177093782
0.00383668619997559
0.0036313190248096
0.00343550568879282
0.00325588221889445
0.00309179364510447
0.00292254443668022
0.00277755546135938
0.00263477188519418
0.00250010850096035
0.00236906756260932
0.00224869736042424
0.00211884504390849
0.0020187297557492
0.00188696509928816
0.00178741804476021
0.00167199947622124
0.00156044771241246
0.00145019638868602
0.00133590351434276
0.00122685611837341
0.00109861734298491
0.000985650139636351
0.000855601084467755
0.000737776341407811
0.000551762165024003
0.000496912051620537
0.000132807014238072
0.000251448217878696
0.119301849852696
0.119080228638806
0.119819767594929
0.121219545950304
0.123310444809289
0.12618039260054
0.129430319137587
0.132846651080568
0.136269767472404
0.139513586800742
0.142492769965835
0.144910175068913
0.146848106066547
0.147900892414833
0.148050583708133
0.147122812769931
0.14485327279823
0.140988982152314
0.135265095361244
0.127649659368641
0.117026767186226
0.104000493256203
0.0866935566440346
0.0656420176070727
0.037583727138485
0.0042144893472247
-0.0370957931025404
-0.0860390471716801
-0.141758757519432
-0.203949478880279
-0.271686812894208
-0.342278214504078
-0.413494958873763
-0.481074124200185
-0.540117851212001
-0.590688185402997
-0.626180606501719
-0.649952072644497
-0.662172731928694
-0.667519809867345
-0.666444704426665
-0.659054005174008
-0.647043103668546
-0.630731699515711
-0.610989809994366
-0.587757049971381
-0.562855028302529
-0.535106593829849
-0.506882964468684
-0.477340522786016
-0.447779600009729
-0.417751200258264
-0.389255476372876
-0.361186352174197
-0.335139105863491
-0.310149290917485
-0.2874992854604
-0.266211737547667
-0.246865493052347
-0.228767729104323
-0.212289982534062
-0.196976855633971
-0.182677865433498
-0.16937184316565
-0.156918658680998
-0.145130875792045
-0.133916171958613
-0.123349911004301
-0.113082262153219
-0.103337301976031
-0.0938581053073151
-0.084763318728044
-0.0759266456793602
-0.0673726540176398
-0.0591108868040539
-0.0510983135152868
-0.0434137172598683
-0.0360016071970999
-0.0289678871590419
-0.0222686629523696
-0.0160512132704447
-0.010247670695743
-0.00505146545832565
-0.000394298924610654
0.00345253868311742
0.00666290926369286
0.00860623335199202
0.00962094625161571
0.0105571071105792
0.0110023907060886
0.011226700204153
0.0112326420191845
0.0110972983570729
0.0108284590571175
0.0104904126851959
0.0100834287813085
0.00964590135769064
0.00918760442571612
0.00871304899656587
0.008248522443518
0.00779080605138967
0.00734248154750994
0.00692188734020462
0.00651411315695864
0.00612875223595401
0.00576728227749104
0.00542909348871221
0.00511265922204304
0.00481504777582907
0.00454189737091111
0.0042783406998434
0.00404883384515206
0.00382129920524607
0.00361721252901565
0.003422673827481
0.00324399827983183
0.00308072608191208
0.00291265372203842
0.00276831363632799
0.0026262048536223
0.00249220029847895
0.00236172259042046
0.00224187855180989
0.00211268073207201
0.00201257482059218
0.00188170602483939
0.00178214544999295
0.00166716240439631
0.00155592635202442
0.00144595777709524
0.00133188487181038
0.00122297573089099
0.00109524866135309
0.000982421332084981
0.000852255317585152
0.000735190324243124
0.000548791949281977
0.000495336991719567
0.000128484012252003
0.000263218512760933
0.119250867144311
0.119039552744314
0.119786895168021
0.121187094441644
0.123267972431965
0.126115858995882
0.129341751477329
0.132733754082487
0.136132286870658
0.139350093915077
0.142299872331277
0.144686017981988
0.146584228259254
0.147593386200995
0.147691155280485
0.146701131996791
0.14435895343113
0.140413575345437
0.134597111610386
0.126869116921259
0.116134453744941
0.10296470842091
0.0855153905378355
0.064286775293583
0.0361177281998829
0.00263890759972483
-0.0386948017220963
-0.0875539209163615
-0.143097622304461
-0.205004346201499
-0.272327730399997
-0.342412301037431
-0.413035981792887
-0.480029829214485
-0.538617528186112
-0.58881664686326
-0.624214439748182
-0.648053414599037
-0.660474301453062
-0.66600990637378
-0.66511481230438
-0.657907251476088
-0.646061496914278
-0.629902102733599
-0.610298143340614
-0.587196082671305
-0.562404565353101
-0.534765191513021
-0.506629314489796
-0.477167844190311
-0.447674688228554
-0.417703725157612
-0.389250723535518
-0.361214275844762
-0.335190008032187
-0.310216084464779
-0.287578338705274
-0.266298310290883
-0.246958806770619
-0.22886626312106
-0.212391607102473
-0.197080613738063
-0.182784154821038
-0.169478987248306
-0.157025521072241
-0.145239231279776
-0.134024409142438
-0.123458100414307
-0.11319149877275
-0.103447426222472
-0.0939691155550786
-0.0848757456015894
-0.0760413695131375
-0.0674905407428122
-0.059232534133515
-0.0512246091083986
-0.0435460111276911
-0.0361410288161752
-0.029116825434589
-0.0224286435337601
-0.0162244936029701
-0.0104362593243098
-0.00525925571081008
-0.000623110804525842
0.00319870351086372
0.00638168516119361
0.00831974910817065
0.00936064050225995
0.010319861700266
0.0107838399370536
0.0110278798603617
0.011050999279061
0.0109315663935126
0.0106776503085426
0.0103531632636817
0.00995877712290986
0.00953263197492797
0.00908467115886768
0.00861981867731731
0.00816381067382555
0.00771387908482368
0.0072727524771036
0.00685832617896612
0.00645632559524788
0.00607623820776383
0.0057194362837721
0.00538538850491133
0.00507274305419547
0.00477855272806649
0.00450849089620687
0.00424792778031395
0.00402063689597732
0.00379553530047417
0.00359346454813408
0.00340089102954161
0.00322376951049904
0.00306186240262359
0.00289554794391724
0.00275230865967189
0.00261131192118611
0.00247838076036393
0.00234883938326259
0.00222986337767362
0.00210167584435641
0.00200178891077948
0.00187219000888801
0.00177279122495648
0.00165849977838246
0.00154780399073878
0.00143831615469404
0.00132465064344519
0.00121604023721588
0.00108905020528069
0.000976510549278312
0.000846320850181612
0.000730315939488206
0.000543539353997971
0.000492116596104482
0.000121401762745454
0.000277557351524306
0.119183074197163
0.118982654301979
0.119736294597779
0.121134321254067
0.123200950979379
0.126020341972749
0.129215497930896
0.132576644994729
0.135944464146019
0.139130707829876
0.142045691873626
0.144396020178966
0.146249336764987
0.147210560685786
0.147251630545849
0.146194151411187
0.143773914236293
0.139741679099082
0.133826116351771
0.125977902546555
0.115124518338151
0.101802145370526
0.0842033083944749
0.062791188916366
0.0345119717039622
0.000926201612383879
-0.0404192330473811
-0.089174292002894
-0.144514261260153
-0.206098261400247
-0.27295656738622
-0.342472394719773
-0.412430742009616
-0.478762923491838
-0.536821232766973
-0.586578687145547
-0.621837357634982
-0.645721313251694
-0.658347118108502
-0.664085306134669
-0.663394737534303
-0.65640528950288
-0.644761411396013
-0.628791790396
-0.609362280035723
-0.586427340464869
-0.561776586969186
-0.534277987746498
-0.506254071851067
-0.47689697121366
-0.447490045213081
-0.417593120606522
-0.389193403916932
-0.361198320328861
-0.335200780876435
-0.310245016764003
-0.287620618429148
-0.266348579220339
-0.247016289850577
-0.228930353744397
-0.212461564972654
-0.197154319720207
-0.18286272230514
-0.169562056342786
-0.157110750748798
-0.145328190574776
-0.134116509079911
-0.123552646367443
-0.113288949017159
-0.103548891338426
-0.0940734739392715
-0.0849839295092698
-0.0761538421256338
-0.0676084424881926
-0.059356471930539
-0.0513552791907673
-0.0436850141864839
-0.0362893244244778
-0.0292770435676824
-0.0226023674372763
-0.0164142898670362
-0.0106440349997287
-0.00548914227997279
-0.000876936614824775
0.00291722830296034
0.00607175559055877
0.0080026430966951
0.00906684069906476
0.010047500460646
0.0105298479193131
0.0107941341821199
0.0108353287889039
0.0107329667208355
0.0104952704297889
0.0101857203392076
0.00980535882802768
0.00939204261491377
0.00895585880042158
0.00850214053596025
0.00805603615004323
0.00761523056268914
0.00718259956836703
0.00677556479431057
0.00638051342252334
0.00600681502233361
0.00565572733006343
0.00532680283337546
0.00501887147430763
0.00472897277563754
0.00446280804773643
0.00420601178457597
0.00398162250684459
0.00375962645763796
0.00356018362761687
0.00337015162551291
0.00319511225785434
0.00303505307984434
0.0028709899471601
0.00272926813225689
0.00258978082997938
0.00245830104842075
0.00233004550784418
0.00221225673145614
0.00208540867768507
0.00198597310076617
0.00185796594286499
0.00175893612715335
0.0016455779288131
0.00153564714766941
0.00142684111829957
0.001313779178761
0.00120564105417046
0.00107959657537071
0.000967514153490463
0.000837427099680695
0.000722754985058001
0.000535656037601323
0.000486919849021681
0.000111331830531961
0.000293393625599731
0.11909799053314
0.118908729707682
0.119667075751148
0.121060285328516
0.123108508333702
0.125893235526768
0.129050918694768
0.132374374504113
0.135704854665009
0.138853471346275
0.141727963319686
0.144037778323563
0.145841335171138
0.146750771587719
0.146731322319566
0.145602575314244
0.14310062376918
0.138977816608562
0.132959122547731
0.124985841351736
0.114009579980183
0.100528697410319
0.0827763096325173
0.0611774724252637
0.0327899858673764
-0.000899114374240087
-0.0422462518097747
-0.0908821292449145
-0.14599833027335
-0.207232326249812
-0.27359002898529
-0.342494042627808
-0.411736274495478
-0.477351697861558
-0.534824736196509
-0.584083861773552
-0.619158920205223
-0.643055942544357
-0.655872362803168
-0.66180803033942
-0.661327648383022
-0.654574598185526
-0.643156903522955
-0.627406208216059
-0.608182522687168
-0.585448637839121
-0.560968366379653
-0.533643307204864
-0.505757196837762
-0.476530266550974
-0.447230798474812
-0.417427641887715
-0.389094173024658
-0.361151777958118
-0.335186355545079
-0.310251968400563
-0.287641508792797
-0.266377115240104
-0.247050820456675
-0.228970838804399
-0.212508805467096
-0.197205291598452
-0.182918884895916
-0.169624824931568
-0.157177013892744
-0.145398896757488
-0.134192392981096
-0.123632562322006
-0.113372392163261
-0.103638334027431
-0.0941668535624349
-0.0850825085679303
-0.0762576707972561
-0.067718851739655
-0.0594741701234219
-0.0514807761292262
-0.0438201584969169
-0.0364349266736586
-0.0294358916784106
-0.0227761151676583
-0.0166057871642182
-0.0108551169120811
-0.00572403748847742
-0.00113750025751798
0.002627666617793
0.00575403806193339
0.00767676859825777
0.00876114520718282
0.00976049662486398
0.0102594073256113
0.0105427608805186
0.0106013914936698
0.0105158152492477
0.0102943006534062
0.00999982708346855
0.00963377228229155
0.00923367501020059
0.0088097406831435
0.00836769179662452
0.00793206521786228
0.00750098701393933
0.00707747297726472
0.00667845054802982
0.00629097498216293
0.00592428352336754
0.00557951338462325
0.00525629916969714
0.00495365044436441
0.00466859658259741
0.00440685200640634
0.00415433772461149
0.00393331967333375
0.00371489579544646
0.00351851467390464
0.00333143887913591
0.00315887495175879
0.00300102559631694
0.00283958282849477
0.00269970438697137
0.0025620393051365
0.00243230933166644
0.00230562318591263
0.00218927849165254
0.00206404143398592
0.00196526024755109
0.00183910222032538
0.0017406311831418
0.00162841051316051
0.00151944030958553
0.00141149370422932
0.00129921358743467
0.00119170640443325
0.00106678750638226
0.00095532596074376
0.000825473792418844
0.000712369706181722
0.000525032188444191
0.000479597173005625
9.83412018008545e-05
0.000309876636822306
0.118994775977596
0.11881672591352
0.119578157192715
0.120963983911676
0.122989869994125
0.125734193627076
0.128847880334477
0.132126748163697
0.135412926141227
0.138517307473787
0.141344991852751
0.143608962033068
0.145357483052257
0.146210938794951
0.146127078143275
0.14492350160186
0.142336720390106
0.138120437093884
0.131995791980467
0.123894173973402
0.112792670713583
0.0991497307891365
0.0812423860382982
0.059456587056877
0.0309651415136313
-0.00282107685217725
-0.04415813855509
-0.0926594114076846
-0.147532980586459
-0.208393304897877
-0.274221849270814
-0.342481293133464
-0.410970846665255
-0.475830663134757
-0.532678872199667
-0.581398970476666
-0.616254852823984
-0.640135272742664
-0.653121873831513
-0.659240699088725
-0.658963690758776
-0.652450970530645
-0.641270651910844
-0.625756936346428
-0.606762147424988
-0.584257586158571
-0.559974444705907
-0.532854578932822
-0.505132360194743
-0.476062598861383
-0.44689371487764
-0.417206669449136
-0.388954499747624
-0.361078618543424
-0.335152583148414
-0.310244544286632
-0.287649086194784
-0.26639223059903
-0.247070231037403
-0.228994716084205
-0.212539201915801
-0.19723852568225
-0.182956583096767
-0.169670163701962
-0.157226458855035
-0.14545270309364
-0.134252606853237
-0.123697847487948
-0.113441262788159
-0.1037145099392
-0.0942475343396911
-0.085169256858888
-0.0763501788045927
-0.0678185785847092
-0.0595819552709147
-0.0515969535593051
-0.0439467997428721
-0.0365727054807659
-0.0295876960779772
-0.0229436465141589
-0.0167921220448811
-0.0110620288476961
-0.00595575738221511
-0.00139588945424715
0.00233969946868953
0.00543892578707802
0.00735319020569165
0.00845506446162115
0.00947043992074495
0.00998378703539654
0.0102843865158237
0.0103591686026104
0.0102894355029735
0.01008343417415
0.00980357182462215
0.00945153076108055
0.0090644944606901
0.00865276481105326
0.00822242593766079
0.00779739003279097
0.00737620688602203
0.00696202132913832
0.00657125471599555
0.00619162738018287
0.00583222841529638
0.00549407371107198
0.00517687550200872
0.00487981598644316
0.00459991945042597
0.00434289445559385
0.00409496953173911
0.00387760971492249
0.00366305011016854
0.0034700054007933
0.00328615364576668
0.00311632914188636
0.00296093331601053
0.00280236011118007
0.00266455250474941
0.0025289323824114
0.00240116377367057
0.00227625506275947
0.00216153878939392
0.00203811679360645
0.00194014542698263
0.0018160264174314
0.00171826535525797
0.00160734055699518
0.0014994841081653
0.00139253824548165
0.00128118714745139
0.00117444170395925
0.00105079302180656
0.00094009361567315
0.000810603330522148
0.000699257272865521
0.000511788481549022
0.000470190910803477
8.27633867905569e-05
0.000326360300052962
0.118872323858451
0.11870531581255
0.119468132784928
0.120844063876473
0.12284389477016
0.125542512539354
0.128606006392423
0.131833530409306
0.135068355418206
0.138121583185911
0.140895663756015
0.143107822802776
0.144795441247572
0.145588148774332
0.145435466701291
0.144153216976577
0.141478386486718
0.13716580510089
0.130932777633756
0.122700255168288
0.111472041542002
0.0976648994478274
0.0796029373336405
0.0576321023963272
0.0290430368843508
-0.00483165228173539
-0.0461445253494012
-0.0944939047933627
-0.149104460818162
-0.209566959853853
-0.274839180554242
-0.342425027895548
-0.410132253988384
-0.474207242980338
-0.530402542331361
-0.578556093027542
-0.613168231089436
-0.637009913593492
-0.650148553504519
-0.656435530049028
-0.656350686342117
-0.650074054456161
-0.639132669200401
-0.623863877001113
-0.605111859910545
-0.582857190668462
-0.558792634004349
-0.531906222904308
-0.504372679146708
-0.475487013047187
-0.446472894141234
-0.41692635160753
-0.388772359503722
-0.360979168857458
-0.335101629420113
-0.310226831086267
-0.287648139105919
-0.266399255349619
-0.247079686248127
-0.229006727766112
-0.212556653546889
-0.197257282336658
-0.182978387803574
-0.169699885530039
-0.157260374058293
-0.145490437296161
-0.134297470245781
-0.123748480547689
-0.11349524020191
-0.103776715735452
-0.0943145261169728
-0.0852428965694564
-0.0764298376921941
-0.0679057988577698
-0.0596777048548337
-0.0517013974718684
-0.0440622089577769
-0.0366996269333349
-0.0297290797933217
-0.0231012279081847
-0.0169691535373426
-0.0112602317422354
-0.00617930234085392
-0.00164663295372514
0.00205930900861855
0.00513280360549674
0.00703863494322665
0.00815569620914516
0.00918474601848995
0.00971043172760197
0.0100261867971374
0.0101155180327803
0.0100603209786009
0.00986880144690886
0.00960272917041661
0.00926406661077258
0.00888960415262323
0.00848972127356904
0.00807083026482694
0.00765621394523749
0.00724482399582458
0.00683992077044557
0.00645741425103289
0.00608567991610678
0.00573364205955357
0.00540219875123707
0.0050911336875277
0.00479979133724793
0.00452519778412751
0.00427303393882913
0.00402985640301621
0.0038163080701766
0.00360577514303503
0.00341622054810518
0.00323574706536114
0.00306882348482818
0.00291602979327067
0.00276047779699683
0.00262488501306504
0.00249145570133017
0.00236578434148858
0.00224279394023739
0.00212982484522179
0.00200836006966582
0.00191130654971394
0.00178935528676234
0.00169241394415216
0.00158289875476438
0.0014762660838501
0.00137042429933687
0.0012601157711374
0.00115423184401823
0.00103196256304289
0.000922138353356502
0.000793128387323068
0.000683681750148612
0.00049621707988626
0.000458883635585366
6.51289029862246e-05
0.000342341086987652
0.118729294519776
0.118572948512128
0.119335346350385
0.120698882772508
0.122669100283661
0.125317091084975
0.128324529585169
0.131494174857818
0.134670657179859
0.137665693746462
0.140379084719169
0.142532951509756
0.144153293108044
0.144879804582818
0.144653276266778
0.143287972498615
0.140521445509851
0.136109430801909
0.129765506179931
0.121399688476167
0.110043616550078
0.0960709073623013
0.0778557333406269
0.0557032781815233
0.0270243755024245
-0.00692825567478928
-0.0482008810596712
-0.0963792574548585
-0.150704510572474
-0.210743433134717
-0.275431429650457
-0.342315153099912
-0.409212763375768
-0.472478121045723
-0.52799862942533
-0.57556639450538
-0.609918787030502
-0.633707230725049
-0.646985188653748
-0.653429059462174
-0.653526412622487
-0.647479426252297
-0.636773991127962
-0.621751596354079
-0.6032488182423
-0.581256959745757
-0.557426306887993
-0.53079638033315
-0.503473441673263
-0.474797234678178
-0.445962068456864
-0.416581713071589
-0.38854433230082
-0.360852250175181
-0.335034236313265
-0.310201709933876
-0.287642488616354
-0.266402829065902
-0.247083837817586
-0.229011295031087
-0.212564818325039
-0.19726459478592
-0.182986686970538
-0.169715688904137
-0.157279932434739
-0.145512858692414
-0.13432733343806
-0.123784498833434
-0.113534138489691
-0.103824492701339
-0.0943671617453046
-0.0853025555798087
-0.0764956185537886
-0.0679793056204497
-0.0597600289358236
-0.0517925488555599
-0.0441646441777516
-0.0368137854192673
-0.0298579504302954
-0.0232465833081962
-0.017134375956725
-0.0114470034410999
-0.00639168501351095
-0.00188647631658953
0.00179006564878771
0.00483942381876831
0.00673701801630345
0.00786729100491058
0.00890808900856198
0.00944424814163488
0.00977303912682586
0.00987521651424384
0.00983307510139274
0.00965481243401006
0.00940150559242951
0.00907538295691882
0.00871280565098812
0.00832421602280768
0.00791631778218273
0.0075117670345804
0.00710989275623278
0.00671405597982528
0.00633965527933571
0.00597570633359559
0.00563095170713467
0.00530617850592432
0.00500123459031889
0.00471561392707621
0.00444635281794148
0.00419908070600086
0.00396070251345278
0.00375102314564032