/*--------------------------------*- C++ -*----------------------------------*\
| =========                 |                                                 |
| \\      /  F ield         | OpenFOAM: The Open Source CFD Toolbox           |
|  \\    /   O peration     | Version:  v2006                                 |
|   \\  /    A nd           | Website:  www.openfoam.com                      |
|    \\/     M anipulation  |                                                 |
\*---------------------------------------------------------------------------*/
FoamFile
{
    version     2.0;
    format      ascii;
    class       volVectorField;
    location    "7000";
    object      U;
}
// * * * * * * * * * * * * * * * * * * * * * * * * * * * * * * * * * * * * * //

dimensions      [0 1 -1 0 0 0 0];


internalField   nonuniform List<vector> 
14000
(
(0.0628392820292437 2.31864486795291e-05 0)
(0.0614211352312642 4.70298432242554e-05 0)
(0.0585337637820777 4.59655159524084e-05 0)
(0.0550921649908174 4.9673983367209e-05 0)
(0.0510450309986755 9.95621043370175e-05 0)
(0.0471220575013638 0.000239377449517041 0)
(0.0440074366166822 0.000468811406895579 -1.98617035822557e-19)
(0.0417448857600059 0.000779453526856075 0)
(0.0403864586455652 0.00117166268116977 0)
(0.0398698809894992 0.00166048874833065 8.58334093060402e-19)
(0.0403783802503597 0.0022783649908344 0)
(0.0416412164744096 0.00304169795094579 -1.76448232239276e-18)
(0.0438014408123205 0.00401479660134331 1.7374104923102e-21)
(0.0468408701880449 0.00522965909773102 -3.44244952270599e-21)
(0.0504490502838521 0.00671242697277346 -3.48477918732123e-18)
(0.0547415304838879 0.00852884135287095 3.40737581675692e-18)
(0.059750995105873 0.0107343895212283 3.29613735628613e-18)
(0.0653763491315035 0.0133397254953051 3.14156201694221e-18)
(0.0711843291712405 0.016311722479006 2.9458260940192e-18)
(0.0779303916636833 0.019853090081661 5.42184654758e-18)
(0.0848226544718488 0.0237332833488461 -4.84135783543617e-18)
(0.0924672932064077 0.0282150755774838 -2.35049341651029e-22)
(0.10052551606836 0.0330922443737792 -3.39715566138059e-18)
(0.110248107166171 0.0388612018513257 -2.51964562913047e-18)
(0.120637379514689 0.0447387082902237 -2.95070458539892e-23)
(0.131312582357328 0.0506922253159508 -2.98845166781581e-19)
(0.142872081936929 0.0563721858330373 0)
(0.153881057225551 0.0609773721951636 -2.48707738281806e-18)
(0.164054257322448 0.0641829966077542 4.06819383181672e-18)
(0.173507853787416 0.0658074944508389 5.71367113148808e-18)
(0.181431442186667 0.0654071794097676 2.04999542349721e-21)
(0.1871883239181 0.0628549629801473 -9.13275612361305e-18)
(0.189930001367636 0.0579894507675891 0)
(0.188077905823712 0.0509250839856162 0)
(0.18252869338245 0.0426916974430384 0)
(0.172382142917619 0.0336138202025947 0)
(0.158529408772811 0.0249313113682503 3.87074625769295e-21)
(0.143525877257217 0.017397214464367 1.07919626894345e-22)
(0.129307563754134 0.0114117582970405 -3.94633821146717e-21)
(0.116789045786289 0.00670038597143544 0)
(0.104783715780342 0.00296917435014986 3.91771845508489e-21)
(0.0934848924639766 0.000104201071202841 -6.19551125483904e-23)
(0.0830231289284097 -0.00204747087215932 1.00182066488934e-18)
(0.0731603678006875 -0.00359859258622284 1.9776784877466e-18)
(0.0636000698683514 -0.00462313087296089 -3.87397101536767e-18)
(0.0547356664261222 -0.00520769003335355 -3.77299564603685e-18)
(0.0459914771465954 -0.00539230504976664 3.66547222836936e-18)
(0.037679354911254 -0.00522859374350795 -7.1031899035669e-18)
(0.0298040194051405 -0.00479421572782984 0)
(0.0219404356024427 -0.00406392394203476 0)
(0.0141225081580093 -0.0030576905746799 -6.33554021381695e-18)
(0.00711459277289438 -0.0019475902398466 -6.04585501101278e-18)
(0.000579163901584953 -0.000716683641914328 -2.92336013643392e-21)
(-0.00540731507554214 0.000562815450009853 1.09604142981908e-17)
(-0.0106612651344339 0.00182758250431897 5.20193333553772e-18)
(-0.0148470264629169 0.00291614461835269 -4.92989972102093e-18)
(-0.0180920150337306 0.00385090397245022 4.7372943045803e-21)
(-0.020769573442223 0.00464567053643387 -1.77041116306472e-17)
(-0.022722764341339 0.00526197269128454 4.26530282739484e-21)
(-0.0240882756110655 0.00569046760119165 7.97868728526743e-18)
(-0.0249765163889229 0.00599658261968608 -3.34242190656466e-21)
(-0.0258275416493356 0.00624168276027305 3.39085304641729e-21)
(-0.0262260148745049 0.00631811625681624 -6.8453810866397e-18)
(-0.0264143641916106 0.00632767823404779 -6.3479505003585e-21)
(-0.0265874819947395 0.00629911023042439 3.12279580751919e-21)
(-0.026628054281986 0.00618076632995519 1.77057498900554e-22)
(-0.0264049818924211 0.00598121059711701 -2.73606770196312e-18)
(-0.0262372776737934 0.00578221488863417 -1.27805219889632e-21)
(-0.0258566124561761 0.00547798325514071 -2.4096034124441e-18)
(-0.025298705373035 0.00514860248183923 4.48170066961675e-18)
(-0.0246414377080789 0.00477533467604866 -2.06894296193919e-18)
(-0.0237561294259216 0.00436256451935785 1.08263647328763e-21)
(-0.0227300181509091 0.00391627784463046 3.19504740752812e-21)
(-0.0213891753002708 0.00342900688802474 -3.24498676986366e-21)
(-0.0198472713087151 0.00293696931419804 1.39248744177154e-18)
(-0.0179739423295482 0.00242366691618766 -1.22029495031307e-18)
(-0.0158207211660579 0.00192294843293735 -1.04570279352992e-18)
(-0.0133098311605716 0.00142830799815181 -3.46366480254566e-22)
(-0.0104489200633371 0.000968531588841029 -1.56597299769487e-21)
(-0.00714535820311458 0.000545565293715418 -2.76134690025281e-19)
(-0.00350404433790884 0.000195673727646246 -1.579077449709e-21)
(0.000600598210120672 -8.53119151658994e-05 1.28394613771589e-19)
(0.00510996364965845 -0.000265151477032324 3.04336727416386e-20)
(0.0101873663007001 -0.000347371530775452 -4.59989412300213e-22)
(0.0155954481053147 -0.000294490887604118 1.18604749952869e-20)
(0.0220818513227665 -0.000133633629941655 -5.51372744868814e-21)
(0.0291675731003698 -7.79812132050724e-07 -5.69750193846855e-22)
(0.0343860233101352 4.71689398479905e-06 1.08141642102381e-21)
(0.0384019375286629 -5.57246266695597e-06 3.17723424817313e-23)
(0.0420742664190904 -7.45525719996546e-06 -5.38803682544101e-22)
(0.0452120413215005 -1.03499154128133e-05 5.47652153316707e-22)
(0.0479508160768138 -1.240069657208e-05 -5.46007633375153e-22)
(0.0503580856284221 -1.24864051892753e-05 2.73359043553484e-22)
(0.0524541110278517 -1.3384732009948e-05 -2.64371929725563e-22)
(0.0542785909592585 -1.30886982072198e-05 0)
(0.0558685505721419 -1.3440644399431e-05 -2.36277465723611e-22)
(0.0572411636026866 -1.27485903095099e-05 1.08861449995314e-23)
(0.0584486508826415 -1.15962153340402e-05 1.12843345158736e-23)
(0.0594883477761142 -1.17403194570462e-05 1.13172666146226e-23)
(0.0603832410348752 -1.10112054522308e-05 3.67863762794929e-22)
(0.0611716200850807 -1.0408459221891e-05 -1.9049652153658e-22)
(0.0618422392669427 -1.05567719602663e-05 0)
(0.0624265707305919 -9.4630125864096e-06 4.10003443722055e-23)
(0.0629423731181186 -8.77797934689403e-06 0)
(0.0633834270162494 -8.6090198624263e-06 0)
(0.0637629842063895 -8.49557525561769e-06 -3.4066357234624e-23)
(0.0640936588320802 -7.98150527335746e-06 -6.4099928230501e-23)
(0.0643855050670077 -7.53228739213418e-06 0)
(0.0646350338581192 -7.05395050050606e-06 0)
(0.0648620750966784 -6.7646210746482e-06 -2.67683510124814e-23)
(0.0650426016301045 -7.5418258080966e-06 5.03970735017172e-23)
(0.0652081132439238 -6.63103227437088e-06 -4.768370163892e-23)
(0.0653575321617413 -6.71450931533485e-06 -4.49836480850968e-23)
(0.06548345346385 -6.49708456553889e-06 -4.25662333568089e-23)
(0.065593629343962 -7.02509961814562e-06 7.84157674777042e-23)
(0.0656816855469958 -6.64636791607779e-06 -7.84060823573178e-23)
(0.0657817248207693 -5.57392764275624e-06 -3.52286240307995e-23)
(0.0658581096844635 -6.48053939229116e-06 -6.576957832415e-23)
(0.0659170094059299 -6.48788156576354e-06 3.50672003392947e-23)
(0.0659782157658255 -6.34754941198202e-06 1.62657372522798e-24)
(0.0660337990526729 -6.31314773213691e-06 -2.77173870759354e-23)
(0.0660775315328054 -6.13763280864651e-06 8.25708374593103e-23)
(0.0661314736558815 -6.15438613801875e-06 -2.77383630422643e-23)
(0.0661523568264351 -7.0497647574005e-06 1.07138135391061e-27)
(0.0662009588056389 -5.45200143880686e-06 4.72657129942777e-23)
(0.0662324676935522 -6.96098767010369e-06 -2.15037847681498e-23)
(0.0662538666214184 -6.07019222751437e-06 2.15021035649067e-23)
(0.0662928510610414 -5.98094592767557e-06 -1.95696146657404e-23)
(0.0663187978363998 -5.87172447219765e-06 6.45281720433669e-25)
(0.0663475732781537 -5.94036825423347e-06 6.45934683342566e-25)
(0.0663695361010464 -5.6369812894902e-06 2.31343863567645e-23)
(0.0664117384836746 -4.82983448559198e-06 -7.49895973218217e-24)
(0.0664383844191993 -5.69837372424009e-06 0)
(0.0664653323155083 -6.31999325325099e-06 5.38887370623677e-24)
(0.0664908860918697 -4.23508379237864e-06 -3.79115073134499e-25)
(0.0665879229356201 -6.97784519367189e-06 -1.05211609886105e-23)
(0.0665386148998158 -2.49768315778103e-06 -3.04503481898683e-24)
(0.066807896627413 -1.16630000709728e-05 -7.3433125249002e-24)
(0.0666217742964975 5.89517015962194e-06 6.56569157760826e-25)
(0.0669216341192195 -5.42574676407438e-05 -2.22181070694073e-23)
(0.190456958039274 0.000127212328478879 1.02457230315829e-22)
(0.187642315074552 0.000333292707566616 -1.02737424639165e-22)
(0.181890537133064 0.000445908394192337 0)
(0.174208776576102 0.000539002593922126 0)
(0.164839424503017 0.000732877350528802 1.39927263493621e-20)
(0.155207153192144 0.00114724948341446 0)
(0.146843103902953 0.00181370950958386 2.43284165496077e-19)
(0.14028968883486 0.00273241297297562 -9.70973577780814e-22)
(0.135807966981953 0.00390632372091304 1.03044002879984e-21)
(0.133362916489556 0.00536573049606345 -1.07389707381924e-18)
(0.133316645491536 0.00719058726014957 -1.07713070138903e-21)
(0.135203831454483 0.00942455010637518 3.23649084744157e-21)
(0.139262216704445 0.0122168950546893 2.2926448561412e-23)
(0.145357962279084 0.0156523878353761 9.90706962820291e-24)
(0.152972333998028 0.0198015556773886 -3.9702817551358e-24)
(0.162171498308256 0.0248047476126969 -4.18239931565601e-18)
(0.173007084597027 0.0307998525089582 -4.01933844786942e-18)
(0.185305193375453 0.037830101846448 3.81163715182717e-18)
(0.198286276979086 0.0458248086863586 0)
(0.213142416133502 0.0552134105257518 0)
(0.228645272429075 0.0655421899304716 6.73166006383633e-22)
(0.245808639108998 0.0773593583961613 -6.5003803370856e-22)
(0.264036060043075 0.0902203249246005 0)
(0.285622957150395 0.105192324013822 -7.31442884850935e-23)
(0.309203782983323 0.120648572912659 7.90131311782172e-24)
(0.334305164361578 0.136436486360188 2.99351102698847e-19)
(0.361609220197667 0.151617132611764 5.51238381985025e-22)
(0.389176558853992 0.164412061390291 -5.31961514835956e-22)
(0.41603376347611 0.173809850823422 -5.00410226508824e-18)
(0.44202636555409 0.179173765061091 4.85868389822309e-20)
(0.465658613954606 0.179368155647442 0)
(0.48534383585894 0.17389699271843 1.14265621320111e-17)
(0.498920677136955 0.162225561501666 1.36041256758669e-17)
(0.502745349923324 0.14447385975126 0)
(0.497125761876223 0.122960583763296 0)
(0.479930449493377 0.0986057051499585 0)
(0.45230250765694 0.0745676907907234 0)
(0.418886342857802 0.0530192275974425 0)
(0.384871479823585 0.0353760295557739 0)
(0.353249871687169 0.0212034998112707 0)
(0.322669124031596 0.00978603426701352 -3.37021380831529e-22)
(0.293412300655717 0.000811627920135131 -4.38072911802341e-20)
(0.265845987739835 -0.00610897375898498 0)
(0.239661204717233 -0.0112837407757974 -5.73600019849407e-21)
(0.214196801043062 -0.0149357190031014 5.98550194493667e-21)
(0.190220472861492 -0.017271761622859 5.35244880176235e-18)
(0.166526789409054 -0.0184329301582904 -5.22133976922558e-21)
(0.143754619199432 -0.0185455478291349 1.01809892799276e-17)
(0.121772212629023 -0.0177971097267022 -4.68733776710519e-21)
(0.0997540117184967 -0.0161556322125846 4.81892287222003e-21)
(0.0775757697339937 -0.013668945297478 9.24721253642345e-18)
(0.0570731032206188 -0.0107608446139364 -7.63271891539123e-21)
(0.0375407560866504 -0.00740566186975024 8.58103298197261e-18)
(0.0193539311114081 -0.00383652120308895 -8.24044474856212e-18)
(0.00292996044883218 -0.000219504711900189 -1.58194362253427e-17)
(-0.0105678945673991 0.00295743269517807 7.4928390644548e-18)
(-0.0215467022024995 0.00577452434707207 -6.64957612655382e-21)
(-0.0306606148732459 0.00818935415778937 1.33331381406665e-17)
(-0.0376487081713788 0.0101173700637734 -1.25947253039127e-17)
(-0.0427461464900173 0.0115024623738151 -1.19168322706832e-17)
(-0.0464733679120155 0.0125654937689116 1.12604817088229e-17)
(-0.0497080423516206 0.0134043378670291 -1.06656643184318e-17)
(-0.0515396464951227 0.0137568129664785 1.00835022207891e-17)
(-0.0527016447276678 0.0139246821061711 4.48664585189242e-21)
(-0.0536045158595991 0.0139566142485418 -4.57352781430377e-21)
(-0.0539190936336407 0.0137075985958213 -1.69814633928422e-17)
(-0.053496606728941 0.0132411124080128 3.98932682484585e-18)
(-0.0530363154449981 0.0127524246612413 -3.74044612830507e-18)
(-0.0518436438575621 0.0119548746944106 -1.02361870507116e-20)
(-0.0501668652064723 0.0111000726209553 -6.47863619495989e-18)
(-0.0480818031701673 0.0101108418582108 0)
(-0.045378327427609 0.00902522346385175 -2.73667690768177e-18)
(-0.0421866404378051 0.00784508468748048 -9.75308140835978e-21)
(-0.0381702142944994 0.00657022122136334 8.78387070063314e-21)
(-0.033589914568587 0.00529326809858785 -4.18012599685194e-21)
(-0.0281473547107266 0.00397504995018056 3.16749300197594e-21)
(-0.0219981570991965 0.00271088222092039 -1.51662938507302e-18)
(-0.0149430735386392 0.00148085425307363 2.24178065131841e-21)
(-0.00704281700109505 0.000366636511622769 -2.278847443197e-21)
(0.00191697322687114 -0.000627905752279501 4.00013880746824e-19)
(0.0116539555389797 -0.00140584280401464 0)
(0.0224695359010716 -0.00198505909484946 0)
(0.0341913683947791 -0.00228024054299372 0)
(0.0471692072694655 -0.00230543283610505 1.9089254188648e-21)
(0.0609093472023504 -0.00198394774883529 -1.55705476123583e-20)
(0.0768645353141473 -0.00138492962559554 7.21841576426697e-21)
(0.0939680161993715 -0.000802769973464612 -1.3358261539301e-22)
(0.107697151678511 -0.000582585269217348 -2.91896234573399e-22)
(0.11876436986702 -0.000506083618642921 3.92102144742272e-23)
(0.128611945136787 -0.000434457943929069 -1.0070295832246e-23)
(0.137264619804206 -0.000380219700060705 6.49738609088102e-22)
(0.144898950340408 -0.000333744078195318 -1.28392581169953e-21)
(0.151679252620582 -0.000290175684209078 1.23742252869436e-23)
(0.157661110297559 -0.000254020182058621 6.18830006337587e-22)
(0.162939333916268 -0.000221049692710646 -5.67192780045223e-22)
(0.16758846125297 -0.00019372835139149 6.08965466128907e-22)
(0.171666628657115 -0.000168772748456327 0)
(0.175274615430035 -0.000145538296462179 0)
(0.178432840532516 -0.000128169626649857 2.33582125223947e-22)
(0.181194445158061 -0.000112193909466451 1.55171665027165e-23)
(0.183634466041933 -9.80782707214338e-05 -4.27126506224799e-22)
(0.185755880153231 -8.78524929023357e-05 6.21478775446178e-23)
(0.187620598389796 -7.67653402979555e-05 1.94727403838911e-22)
(0.189269160957657 -6.7271543042348e-05 0)
(0.190708886256173 -6.02056225182765e-05 -4.16862295355105e-23)
(0.191965222400599 -5.45610179513005e-05 3.92057212026417e-23)
(0.193068166244988 -4.89158336401736e-05 3.68711597129045e-23)
(0.19404417332962 -4.38489560894441e-05 0)
(0.194895721299489 -3.94572381162013e-05 -1.26858364078518e-22)
(0.195660744790907 -3.55497441876431e-05 1.26815886545358e-22)
(0.19630468378275 -3.50049767547829e-05 -5.79525977319634e-23)
(0.196884117988934 -3.13096554258651e-05 1.06536285756097e-22)
(0.197399014248285 -2.95286461411672e-05 4.58333241421425e-23)
(0.197850591518072 -2.74997015830997e-05 -1.00648282942204e-22)
(0.198245033884832 -2.73042489258029e-05 9.01633005347783e-23)
(0.198579689201517 -2.59581319816769e-05 -4.62886017809262e-23)
(0.198911167322194 -2.23556919011551e-05 8.10245037979788e-23)
(0.199188212971936 -2.30741385145841e-05 -1.18458183716351e-22)
(0.199421584916444 -2.27786386453741e-05 7.67944553004031e-23)
(0.199636719502094 -2.20548401740192e-05 0)
(0.19983331755048 -2.14144175462762e-05 0)
(0.199999112502209 -2.07868642519813e-05 3.19149390948612e-23)
(0.200171229609449 -2.00113345462793e-05 -3.03007988662916e-23)
(0.200279847719373 -2.22215238243583e-05 2.85527213618661e-23)
(0.200425787563334 -1.848711085124e-05 -8.92876268301449e-25)
(0.200533697439796 -2.12061838983555e-05 -2.63213069914522e-23)
(0.200627289433825 -1.96023983272093e-05 -4.7409565054321e-23)
(0.200733526597141 -1.91115138776274e-05 1.53068349528681e-24)
(0.200823034453065 -1.86795204035587e-05 4.28239785246767e-23)
(0.20091044825648 -1.87078199427508e-05 1.95536273198335e-23)
(0.200983193628058 -1.84047178976447e-05 -1.80153584998956e-23)
(0.201087693493597 -1.64901993439954e-05 -8.2719308230945e-24)
(0.201166224528149 -1.81909400388544e-05 0)
(0.201245900527721 -2.0451686813182e-05 0)
(0.20131681571995 -1.69857244888925e-05 -8.45906880721684e-24)
(0.201512383589801 -2.30547353436075e-05 -1.68957432676046e-18)
(0.201474046185326 -1.54809423795172e-05 -1.26601603481346e-18)
(0.201966577029903 -4.06601668305572e-05 0)
(0.201709184719515 1.32241136282484e-05 -9.14362273991406e-25)
(0.202341227862731 -0.000171941647952728 2.60223876592357e-23)
(0.314894072601953 0.000264629822748541 0)
(0.311810684201326 0.000721988467258281 0)
(0.305420798657074 0.00104404035844452 0)
(0.296237305940604 0.00132681176049825 0)
(0.284540697068383 0.00173705860031456 -1.01015285337789e-20)
(0.27188096956995 0.00247243369591272 -6.93944623524701e-22)
(0.260074454086548 0.00360761328354686 0)
(0.250144460442561 0.00516389427161093 -3.91635281534997e-19)
(0.242671579578142 0.00715411130341302 0)
(0.237807141574455 0.0096142014987059 8.41142061696218e-19)
(0.23598501398646 0.0126411142442468 3.00405348002571e-16)
(0.236794537647659 0.016284278814203 3.03808835797498e-16)
(0.240487960857432 0.0207308977598168 -1.73592626030077e-18)
(0.246878314810393 0.026079421254751 1.6802856584969e-21)
(0.25546570237724 0.0324285541688563 -3.39165343980644e-24)
(0.266223589024304 0.0399407688036139 -1.62987383288355e-23)
(0.279183022321219 0.0487805918677026 3.16503264715361e-18)
(0.294186641813466 0.0590083748542152 -3.02078255280006e-18)
(0.310465907595508 0.0705737517161711 -2.83081496071182e-18)
(0.329106281978276 0.0839320662063605 6.11538441267676e-22)
(0.349038680138776 0.0986176025412841 -5.61797030938808e-23)
(0.371234779188519 0.115239758518633 -5.26041104069965e-22)
(0.395198219000073 0.133296656413879 3.30135118767239e-18)
(0.423280047390496 0.153916317331513 -2.43715008248735e-18)
(0.454596219166849 0.175283747057345 -1.38675263898993e-18)
(0.488763197659518 0.197223693349139 -2.51016491825346e-19)
(0.526409539225127 0.218401450737348 5.61931931326205e-23)
(0.565814071625151 0.236751364664156 0)
(0.605655152756774 0.250848545896423 0)
(0.645377333574047 0.259595484022226 -6.16682289771797e-18)
(0.683203384451176 0.261431347015735 1.73380808429039e-21)
(0.716986884299416 0.255515580519085 -5.43972173440137e-21)
(0.743807526954367 0.240941879540873 -2.39020870363057e-17)
(0.758925722108183 0.2177023246686 0)
(0.761278332226248 0.18839678892892 -7.8211268096057e-21)
(0.747719506708206 0.154213452715455 8.34226807329756e-18)
(0.718611925310079 0.119377660299384 0)
(0.678531245748264 0.0869495701257663 0)
(0.634280566438604 0.0593634680195784 4.82522289091071e-18)
(0.590645252168547 0.0364787276543882 -9.59209420792388e-21)
(0.547487542547033 0.0175939952541924 -1.24905007201941e-18)
(0.505434158153106 0.00234641601244475 3.91803879460589e-20)
(0.465089374066891 -0.0097785515784293 0)
(0.426345105593961 -0.0191976890528283 -4.95570803052913e-18)
(0.38846686971958 -0.0262437928026039 1.31257952209067e-21)
(0.35230155296601 -0.0311764277420926 -4.78484140890503e-18)
(0.3164294552997 -0.0342415947294509 4.67083150130561e-18)
(0.281600792524525 -0.0355827831286874 0)
(0.247463818982 -0.0354574826839028 0)
(0.213109723040784 -0.0338528723123444 -8.05473798611881e-21)
(0.178172968743483 -0.0308300243191144 8.22622370386601e-18)
(0.145027931360071 -0.0269163060872792 7.94198001897659e-18)
(0.112873963964933 -0.0221225655132232 -7.65890109094196e-18)
(0.0824693083099672 -0.0168240822757187 -6.96067095624825e-21)
(0.0543722145120085 -0.0112631483393326 7.15368272302187e-18)
(0.0306192098965659 -0.00621243792399746 0)
(0.0106233512759789 -0.00156472530851601 0)
(-0.00611909457974157 0.00247848889956262 -1.27340899566201e-17)
(-0.019420231141569 0.00582958697418816 -8.67860606192443e-21)
(-0.0294073369546839 0.00833493105420209 1.12845782824325e-17)
(-0.0371274609009749 0.0103743971695776 0)
(-0.0435759658272567 0.0119906370581003 2.00410706764346e-17)
(-0.0475807532735514 0.012846301735509 -9.44436313222435e-18)
(-0.0503642279195294 0.0134096840163103 4.501939032002e-21)
(-0.0524416757825854 0.0137132434299103 0)
(-0.0533022369175173 0.0135499799813441 1.16983631853822e-17)
(-0.0529228374923539 0.0130557621821107 3.65070389436601e-18)
(-0.0522789935579527 0.0124962778337115 -5.59996592792965e-22)
(-0.0502684693816513 0.0114468755155258 3.11340225793031e-18)
(-0.0475212272569201 0.01033567417621 2.88103521749716e-18)
(-0.0439838512934355 0.00900683070889615 -4.87510858322818e-21)
(-0.0395149914044086 0.00756101699806403 4.89536048255513e-21)
(-0.034217643536251 0.00598447222439048 0)
(-0.027730666629138 0.00430417496207543 -3.47739004649085e-21)
(-0.0204314632960277 0.00264744912694248 1.6740421445714e-18)
(-0.0119345809010209 0.000964915696779226 -3.03620451415996e-21)
(-0.00250704332108337 -0.000601815417409913 1.22177244769799e-18)
(0.00811683118573167 -0.00208414576865017 -3.88422253304421e-21)
(0.0198061020576633 -0.00336272948398883 3.89377749473078e-19)
(0.0328053290072032 -0.00443832245449581 -3.2725608207075e-22)
(0.0467572784589538 -0.00518653980504617 -9.27503132667444e-22)
(0.0619903580042093 -0.00563613441414881 1.21526383265971e-19)
(0.0783043952605717 -0.0056801294076228 0)
(0.0960585053485857 -0.00535026200071922 3.20909100246782e-22)
(0.114755771027861 -0.00456372566503327 9.90102575323178e-21)
(0.135787091506719 -0.00343857394988479 5.37291235210716e-22)
(0.158166354595256 -0.00238708713568912 -3.11275098644193e-22)
(0.177465855347071 -0.00187402789221337 9.63747727841879e-23)
(0.193767666864599 -0.00162000214187788 -2.61028820822266e-23)
(0.208322673516244 -0.00140819424057027 -4.22120585962992e-22)
(0.221331129805962 -0.00124359896839582 4.34014377324132e-22)
(0.232984200469981 -0.00109967079983497 0)
(0.243463691772037 -0.000968700752693386 0)
(0.252851573188235 -0.000854602266733461 -4.13395717751391e-22)
(0.261256797060732 -0.000751762796042112 1.47998391921736e-23)
(0.26876941706085 -0.000662315952384213 1.66256862364839e-23)
(0.275465891361689 -0.000582102624159657 7.488006128203e-22)
(0.281458254745201 -0.000509116216604787 -2.9494020262826e-23)
(0.286791587094715 -0.000448641029357287 -3.48521509568056e-22)
(0.2915316870399 -0.000394580631184831 2.72402421673867e-22)
(0.295764672923229 -0.00034662240156324 -3.13226235685616e-22)
(0.299515889019219 -0.000307463306823493 1.03545573752131e-22)
(0.302855708202153 -0.000270338684474355 -1.73608984787851e-22)
(0.305838278014351 -0.000237802374767851 0)
(0.30848869232018 -0.000210959026903407 6.02189201536168e-23)
(0.310841096399315 -0.000188172705336222 0)
(0.312934351251296 -0.000167315022441595 1.03964526948725e-22)
(0.314805369029217 -0.000148825938251621 -1.29395387102348e-22)
(0.31646815829093 -0.000132727877828977 0)
(0.317966184448065 -0.000118307285990022 -6.49209562443472e-23)
(0.31927745645633 -0.000109733581189562 4.9135463193505e-24)
(0.320458060283088 -9.80176087921507e-05 1.61023496482162e-22)
(0.321516060136755 -8.95344874066755e-05 -1.16418456917969e-22)
(0.322462477183286 -8.15403261045501e-05 7.0176651971984e-23)
(0.32330546158244 -7.65213133246287e-05 -7.02874974458795e-23)
(0.324047900350138 -7.09136439636593e-05 0)
(0.324745061978881 -6.23834076698443e-05 -5.99772562032934e-23)
(0.325359273833366 -6.00464064005234e-05 5.86303759966385e-23)
(0.325901597923278 -5.69899664052153e-05 -1.11111779146843e-22)
(0.326393923866922 -5.35921938920233e-05 5.41847556496643e-23)
(0.326843609855806 -5.06819660942732e-05 0)
(0.327241935249273 -4.80907855093878e-05 -1.8759096091367e-26)
(0.327624444446139 -4.51690079370943e-05 -2.19346833060256e-23)
(0.327930562875525 -4.70139839057041e-05 2.1960335327171e-23)
(0.328251203757606 -4.06932505773479e-05 -1.96548434747216e-23)
(0.328522048767919 -4.31630190510135e-05 1.96773684772942e-23)
(0.328768545460896 -4.03333624737083e-05 0)
(0.329009888385897 -3.87019715795031e-05 1.63139022598098e-23)
(0.32922857709005 -3.75092188570558e-05 -3.20945241396698e-23)
(0.329435310628608 -3.68863326879103e-05 0)
(0.329619728073316 -3.62337745897768e-05 0)
(0.329825827617651 -3.32994624692882e-05 5.89183274379696e-24)
(0.330004073298339 -3.5275551058078e-05 -5.8916496638803e-24)
(0.330179104176069 -3.88368615196332e-05 0)
(0.330338307599291 -3.46062034423996e-05 8.68163335519593e-24)
(0.330612854817608 -4.40266857646363e-05 1.27259817476429e-18)
(0.330676470881029 -3.46927965877599e-05 9.52947759410343e-19)
(0.331231260482597 -7.62476727201489e-05 4.64040465650337e-24)
(0.331092279305756 1.10992631142555e-05 -2.78494292128723e-25)
(0.331867106734364 -0.000291922266613558 -1.96183869009887e-23)
(0.415861025412878 0.000402673213152401 0)
(0.413224733977462 0.00110892591745658 0)
(0.407533348264104 0.0016709087423594 -2.40149210930177e-22)
(0.398916941298649 0.00219674276919645 2.41769992426035e-22)
(0.38746995339691 0.00287285732888853 0)
(0.374439326098538 0.00395364410530491 6.65463069759934e-20)
(0.361492788254791 0.00554345539487194 -1.38773878238491e-19)
(0.349826296349719 0.00768151434030531 6.91419278565781e-22)
(0.340267258089941 0.0103916910567581 -5.78924862842773e-22)
(0.333214674737479 0.013711503300596 0)
(0.329206707226211 0.017743456271855 -2.22034906441759e-16)
(0.327995657341337 0.0225242465995769 -2.24994326448696e-16)
(0.329845216409157 0.028252087005593 2.56112208514585e-18)
(0.334668763457028 0.0350163131119764 1.26439276081426e-18)
(0.342090091933164 0.042931387136932 -1.21214374801146e-21)
(0.352059833742423 0.0521656959096357 2.42657908052141e-18)
(0.36459646969299 0.0628857474907852 -2.34596457808694e-18)
(0.379602522971962 0.0751622481550775 0)
(0.396446566279645 0.0889816184811148 2.1150437563816e-18)
(0.415969844708459 0.104773766256938 -9.82370909842502e-22)
(0.437429036707244 0.122121333558992 3.52171618251266e-18)
(0.46157199599334 0.141620223824205 0)
(0.488153217216719 0.162788568978217 -2.61718035474467e-20)
(0.519123312024161 0.186621009088664 1.89768054324595e-18)
(0.554280971101099 0.211344782145558 1.09201911453415e-18)
(0.593296085944264 0.236772515517308 5.02503644181335e-23)
(0.636899340843924 0.261409641197459 -9.6803719468589e-19)
(0.683756743116098 0.28315508557046 -2.23987713978152e-18)
(0.732531585727557 0.300421271040006 3.65748166498626e-18)
(0.782446186896646 0.311809306706746 -1.89342215376984e-21)
(0.831680436231948 0.31549640712671 2.94935080780778e-21)
(0.877849857625298 0.310376576109914 0)
(0.917787323022276 0.295269053489346 1.03353530204685e-17)
(0.946355489595802 0.269996487244345 -1.18817296542331e-17)
(0.961272817176935 0.237029403271091 0)
(0.958667075530776 0.197518366831356 -7.22146294404873e-18)
(0.937597885750954 0.156108825998381 -7.63785653903571e-21)
(0.901409075137289 0.116259417087604 1.56291072946923e-20)
(0.856697902685402 0.0811272546130109 -4.16877494745699e-18)
(0.809120821438561 0.0510114128732374 -2.10941619219035e-18)
(0.760016390256049 0.0255043846378368 0)
(0.710735148728838 0.00439359402730271 -3.08434534727843e-23)
(0.662288468615134 -0.0128322651620144 0)
(0.614953535633098 -0.0266064505657764 2.09546015225094e-18)
(0.568221516109684 -0.0373191737078483 4.06999953415519e-18)
(0.522950982597845 -0.0452267160006735 0)
(0.477848069782923 -0.0506835851422608 -3.83071033690207e-18)
(0.433658146926913 -0.0538014032799392 7.36538577207851e-21)
(0.389931735038772 -0.0549158843900295 6.68280235307987e-21)
(0.345845053753108 -0.0540365940829024 -1.31683481963242e-20)
(0.300872531263576 -0.0512616314761247 -6.44731289359461e-18)
(0.257378070050076 -0.0470941616440236 6.23368407048281e-21)
(0.214697215210684 -0.0416393462401501 -5.89100761552746e-18)
(0.173815486284941 -0.0353313340493178 -1.10458348618493e-20)
(0.135379258091103 -0.0284910199911483 4.03581072422557e-22)
(0.101941852703435 -0.0220218741345064 5.28572270502775e-21)
(0.0730468539054544 -0.0158844234153845 0)
(0.0485156196657223 -0.0104260459407729 9.57316307251921e-18)
(0.0284331559812207 -0.00574751815540905 9.16625085144258e-18)
(0.0128774881337158 -0.00209291327341875 -8.74485496126893e-18)
(0.000474199946591683 0.000990614901681035 0)
(-0.00981216276228163 0.00348313318224236 -7.77885727288594e-18)
(-0.0167478143999195 0.00503218874979908 7.2418490877784e-18)
(-0.0218219577302356 0.00618950990626005 6.34068634103019e-21)
(-0.0256783442007722 0.00697268685113635 -6.35336056575046e-21)
(-0.0277391042201482 0.00715670149977757 2.55782640479474e-21)
(-0.0280661458404305 0.00692347668680384 -2.65430537380409e-18)
(-0.0278847250335209 0.00658200927891979 -4.97254212910117e-21)
(-0.0258806582259623 0.00564733330904639 0)
(-0.022928897097996 0.00464975145288386 -3.71577640554279e-21)
(-0.0189409695753415 0.00338881987157477 3.65814203021389e-21)
(-0.0138485375675737 0.00200964092630309 0)
(-0.00776831742158923 0.000493411839135137 2.56936397750976e-21)
(-0.000358429197064212 -0.00111392455788354 -2.51191554509495e-21)
(0.00796181846483349 -0.00267787745654247 -1.02780191118289e-18)
(0.0175514638971108 -0.00424349070007544 0)
(0.0281460392711749 -0.00566134806012098 0)
(0.0399691125286638 -0.00695907698811917 0)
(0.0529123818351833 -0.00801512970036801 6.9105804657082e-22)