/*--------------------------------*- C++ -*----------------------------------*\
| =========                 |                                                 |
| \\      /  F ield         | OpenFOAM: The Open Source CFD Toolbox           |
|  \\    /   O peration     | Version:  v2006                                 |
|   \\  /    A nd           | Website:  www.openfoam.com                      |
|    \\/     M anipulation  |                                                 |
\*---------------------------------------------------------------------------*/
FoamFile
{
    version     2.0;
    format      ascii;
    class       volScalarField;
    location    "7000";
    object      wallDistance;
}
// * * * * * * * * * * * * * * * * * * * * * * * * * * * * * * * * * * * * * //

dimensions      [0 1 0 0 0 0 0];


internalField   nonuniform List<scalar> 
14000
(
0.0032984659388385
0.00329846593922766
0.00329846593892888
0.00329846593899835
0.00329837566337499
0.0032978382582597
0.00329626785718873
0.00329301793402954
0.00328739980844201
0.0032786901531644
0.00326610377867851
0.00324897730983576
0.00322641440529483
0.00319789115233726
0.00316276713172347
0.00312043009845885
0.00307047097585738
0.00301289434093362
0.00294760154581918
0.00287421687436756
0.00279427022539573
0.00270678560641925
0.00261392831234806
0.00251495963825755
0.00241560335616417
0.00231532662857349
0.00221845783732215
0.00212719763649533
0.00204244564266612
0.00196520213306695
0.00189641418071497
0.00183604114413205
0.00178448835866732
0.00174110769920893
0.00170469448819934
0.00167547121593034
0.00165178751049841
0.00163334689889064
0.00161956353758892
0.00161069748205431
0.00160676624615106
0.00160760192825839
0.00161309408947658
0.00162308804389074
0.00163742093745249
0.00165589816566068
0.00167833063400115
0.00170457690649398
0.00173435254579048
0.00176756144168019
0.00180402339616622
0.00184367961740225
0.00188606843061168
0.00193132914707391
0.00197911058960345
0.00202951612347354
0.00208177015260019
0.00213608197894509
0.00219197804347582
0.00224932990619191
0.00230734248682559
0.00236639145545636
0.0024261256510126
0.00248565032211741
0.00254512638101586
0.00260456853127572
0.00266303977914967
0.00272039582563441
0.00277691465001884
0.00283139229249981
0.00288415366940272
0.00293468130478482
0.00298293405471918
0.00302843415210908
0.0030709134317953
0.0031102655172814
0.00314618517837869
0.00317860854948605
0.00320726997315552
0.00323206485343468
0.00325290381644282
0.00326979954546004
0.00328268306096024
0.00329161679731775
0.00329667704888392
0.0032979622153462
0.00329768177207548
0.00329770620532695
0.00329769808010488
0.00329769986948631
0.00329769978682332
0.00329770601564599
0.00329770385881145
0.00329770883329159
0.00329770980281521
0.0032977158758376
0.00329772047228755
0.00329772203137998
0.0032977289314495
0.00329773498923834
0.00329774130845889
0.00329775236738855
0.00329776063639897
0.00329776926473304
0.00329777972602771
0.00329779187504639
0.0032978040365035
0.00329781611030948
0.00329782841148908
0.00329784014989507
0.00329785715407598
0.00329787094519696
0.0032978865509812
0.00329790192899541
0.00329791987874026
0.00329793778245478
0.00329795168121423
0.00329796940229352
0.00329798760649082
0.00329800575598416
0.00329802395290764
0.00329804222159585
0.00329805983376994
0.00329808155004741
0.00329809812470988
0.00329811874475356
0.00329813817217597
0.00329815630286343
0.0032981745454144
0.00329819268514719
0.00329821051278001
0.00329822541815319
0.00329824192188292
0.00329826061363891
0.00329827588756507
0.00329829132386879
0.00329830657182566
0.0032983214621748
0.00329833518664923
0.00329840371631855
0.0100541700574804
0.0100541785972061
0.0100541956754028
0.0100542212932873
0.0100539491553814
0.0100522635040311
0.0100475160128879
0.0100380230148811
0.0100221076062826
0.00999811262662843
0.00996434797306019
0.00991931617409459
0.00986140949723875
0.00978924649814161
0.00970165501156622
0.00959742422185621
0.00947551693823009
0.00933534009042959
0.0091764810962344
0.00899832683762155
0.00880149083130873
0.00858566195294914
0.00835200849175586
0.0081006461222837
0.00783590275519195
0.0075600769454989
0.00727843316188715
0.00699643234782048
0.00671895204973772
0.00645087776310972
0.00619713937569925
0.0059616798149719
0.0057484099036997
0.00555974383568058
0.00539641288250667
0.00525968286398752
0.00514809660797069
0.00506038268037875
0.00499446871644293
0.00494904473092637
0.00492300132508359
0.00491519272243526
0.00492460679885814
0.0049503416690258
0.00499157670041159
0.00504747964492817
0.00511728064509657
0.00520031002669488
0.00529568105377368
0.00540293203888146
0.00552141367326983
0.00565046348685647
0.00578905977220445
0.00593684853665125
0.00609277379023418
0.00625602906008963
0.00642508546083918
0.00659937169149653
0.00677755522769274
0.00695860310136172
0.00714125742134526
0.00732510530582735
0.00750884963141599
0.00769124687547566
0.00787191615020976
0.00804995704658474
0.00822409395664564
0.00839386866670887
0.0085586343604122
0.00871718274192543
0.00886932980203017
0.00901432387659668
0.0091516528908293
0.00928058464881315
0.00940069970359354
0.00951163873637841
0.00961300316879194
0.00970451280025535
0.00978579278953086
0.00985665828022536
0.00991705875315067
0.00996696863374189
0.0100063092091267
0.010035229237074
0.0100538906726406
0.0100625034202845
0.0100640485234817
0.0100635853645545
0.0100631573171269
0.0100627175203565
0.0100622922316321
0.010061883101633
0.0100614793125291
0.0100610834992179
0.0100606992712448
0.0100603263579399
0.0100599666842963
0.010059609393981
0.0100592642835809
0.0100589338627552
0.0100586115765256
0.0100583057304257
0.0100580108518496
0.010057721131194
0.0100574434679867
0.0100571798306555
0.0100569271656977
0.0100566828185976
0.0100564472672201
0.0100562195864873
0.0100560090008107
0.0100558088214118
0.0100556150326088
0.0100554326471451
0.0100552628443742
0.0100551052569676
0.010054947673487
0.0100548007703337
0.010054669787488
0.0100545463560068
0.0100544317213392
0.0100543257969847
0.010054227092154
0.0100541449881384
0.0100540654344444
0.010053995324579
0.0100539390023007
0.0100538835086706
0.0100538374630223
0.010053799519254
0.0100537693364291
0.0100537400329496
0.0100537209777462
0.0100537188728862
0.0100537161552614
0.0100537201934761
0.0100537337307413
0.0100537537602445
0.0100537793911953
0.0100539793395125
0.0171349117244893
0.0171349262781364
0.0171349553840089
0.0171349990434777
0.0171345341853924
0.0171316607041227
0.0171235826620367
0.0171074556483495
0.0170804575877152
0.0170398109603882
0.0169826968827457
0.0169066117698738
0.0168089225840894
0.0166873103121271
0.0165398735624768
0.0163646497255655
0.0161599511466195
0.0159247910174575
0.0156585559937323
0.015360386146517
0.015031057238756
0.014670498005449
0.0142802714995251
0.0138610674467641
0.013418650640166
0.0129574025393494
0.0124848744323933
0.0120096179151378
0.0115396249888027
0.0110828071934607
0.0106471882609021
0.0102397084842255
0.00986716661815664
0.00953459581931788
0.00924457504018665
0.00899977460928299
0.00879925585304514
0.00864121400938789
0.00852237999933113
0.0084401044423874
0.0083922765627566
0.00837680374505212
0.00839176648503282
0.00843546773670512
0.00850635874230954
0.00860286082610369
0.00872356039534982
0.00886711331191291
0.00903199053280178
0.00921726543715909
0.00942175226413918
0.00964410919814548
0.00988274227440365
0.0101367740845844
0.0104044446933189
0.0106841013636821
0.0109734395469951
0.0112712270532956
0.0115753000668929
0.0118838273586032
0.0121949717109153
0.0125077620372206
0.0128200161574915
0.0131299244839727
0.0134367104909172
0.0137387256579341
0.0140340684264914
0.0143219590209811
0.0146010960120766
0.0148697630182847
0.0151274813627698
0.0153730703460455
0.0156055983279845
0.0158238941059185
0.0160272744738595
0.0162151051505182
0.0163867529286882
0.0165417112570814
0.0166793767348815
0.0167994344477755
0.0169018168686598
0.0169864548794858
0.0170532311562171
0.0171023898472901
0.0171342005302557
0.0171490127888107
0.0171517492536143
0.0171509566212558
0.0171502286686607
0.0171494787519116
0.017148754011368
0.0171480563618035
0.017147368674158
0.0171466937270862
0.01714603910889
0.0171454032847522
0.0171447903754822
0.0171441816519087
0.0171435932000117
0.0171430301190858
0.0171424808542249
0.0171419593554298
0.0171414569739295
0.0171409632075671
0.0171404899119807
0.0171400405352608
0.0171396099462187
0.0171391935390481
0.0171387921061134
0.0171384041259018
0.0171380449922528
0.0171377040399067
0.0171373736882406
0.0171370629050328
0.0171367734222619
0.0171365048998913
0.0171362365295815
0.0171359859964961
0.0171357628213834
0.0171355524838575
0.0171353571411055
0.0171351766456055
0.0171350084771105
0.0171348684325623
0.0171347331029553
0.0171346134297508
0.0171345175959105
0.0171344230326413
0.0171343445901421
0.0171342799511754
0.0171342285444514
0.0171341786854951
0.0171341461710327
0.0171341426120319
0.0171341380527602
0.0171341449236693
0.0171341680431616
0.0171342021882434
0.0171342459034114
0.0171345867027054
0.0245563298639793
0.0245563507208984
0.0245563924331339
0.0245564550022241
0.0245557881542409
0.0245516697469858
0.0245401011722336
0.0245170217020815
0.0244784093763498
0.0244203129171829
0.0243387310296149
0.0242301061681362
0.0240907319110333
0.0239173071048439
0.0237071673563154
0.0234575635985632
0.0231661278873516
0.0228314618049542
0.0224527436880975
0.0220288585711849
0.0215607509279058
0.0210486089722868
0.0204944072258663
0.0198994475576157
0.0192709826842125
0.0186155869311782
0.0179431891036436
0.0172655658858854
0.0165939619372843
0.0159394422296842
0.0153132496634285
0.0147254513225963
0.0141858552134547
0.0137022460434999
0.0132791690784775
0.0129207846923698
0.0126267571450414
0.0123947497424802
0.0122202599555907
0.0120992289932762
0.0120284934102473
0.0120049636401163
0.0120257609206405
0.0120883459023144
0.0121903975011215
0.0123295440844535
0.012503691966179
0.0127107777995404
0.0129485998833986
0.0132157376211624
0.0135104407085004
0.0138306481863072
0.0141741750123368
0.0145395869022522
0.0149243906814575
0.0153260406905427
0.0157414318421288
0.0161686338843831
0.0166046170132795
0.0170467133114685
0.0174924867977945
0.0179403758278893
0.0183872721713371
0.0188307795207277
0.0192697040079738
0.0197016110352895
0.0201239477455782
0.0205355969238633
0.0209345675476035
0.0213186158572581
0.0216869513421329
0.0220379447952748
0.0223702236241902
0.0226821572842492
0.0229727862416947
0.0232411874222849
0.0234864820761711
0.0237079257687461
0.0239046758232037
0.0240762808274181
0.024222655560385
0.0243436847504556
0.0244392107910423
0.0245095776140196
0.0245551674858537
0.0245764762627761
0.0245804612785047
0.0245793233205478
0.0245782810334783
0.0245772060758889
0.024576167475966
0.0245751674252598
0.024574182179865
0.0245732146689986
0.0245722766512839
0.0245713652668391
0.024570486938015
0.0245696146839382
0.0245687711826157
0.0245679642475878
0.02456717708346
0.0245664295562575
0.0245657096881995
0.0245650020588679
0.0245643237184203
0.0245636796658015
0.024563062592223
0.0245624658466247
0.0245618905510448
0.0245613345588525
0.0245608197301326
0.0245603312318319
0.0245598577468177
0.024559412388259
0.024558997467307
0.0245586126725724
0.0245582281851206
0.0245578690361382
0.0245575492331057
0.0245572478082214
0.0245569678742876
0.0245567092197669
0.024556468245506
0.0245562674727236
0.0245560736836488
0.0245559020624894
0.0245557648160525
0.0245556293033636
0.0245555169053054
0.0245554242867561
0.024555350634992
0.024555279231562
0.024555232610282
0.0245552275271673
0.0245552210376559
0.0245552308775544
0.0245552640402794
0.0245553129800996
0.0245553756495604
0.0245558640776362
0.0323348154688922
0.0323348429323555
0.0323348978574834
0.032334980245996
0.032334101690643
0.032328678478524
0.0323134515200862
0.0322830853433373
0.032232300504999
0.0321559156692054
0.0320486904727766
0.0319059628920407
0.0317229019058481
0.0314951771497099
0.0312193249647274
0.0308917725000832
0.0305094392883398
0.030070495856028
0.0295739029039646
0.0290182793856883
0.0284047461221954
0.0277337660056416
0.0270077440043866
0.026228627069723
0.0254052212785645
0.0245464025753202
0.0236645851790749
0.0227749213039986
0.02189206094453
0.021030368235094
0.0202044523551962
0.0194276526881476
0.0187129253006544
0.018070940821199
0.017508315157059
0.0170307762895864
0.0166386404311234
0.0163290226383072
0.0160961348279482
0.0159344392402335
0.0158396681494774
0.015807685576546
0.0158346045684739
0.0159169999157131
0.0160517379079741
0.0162356121646581
0.0164658143333897
0.0167395230533519
0.0170538317881355
0.0174067999272457
0.0177960846911613
0.0182188689693399
0.0186723511741436
0.0191545105508608
0.0196620869688517
0.0201915968768792
0.0207391003553567
0.0213019336836798
0.0218761611998548
0.0224582380340829
0.0230451034918439
0.0236345750916327
0.0242225745337715
0.0248060927949991
0.0253834976786046
0.0259515300171365
0.0265069559400352
0.027048304420547
0.0275728604778539
0.0280778293569552
0.0285620926925068
0.0290235515911319
0.0294603708836934
0.0298704388529963
0.0302525063852534
0.030605347514272
0.0309278262630207
0.031218948649538
0.0314776213055251
0.031703249692009
0.0318957300886979
0.0320548986739798
0.0321805556846333
0.0322731495697612
0.0323331806684039
0.0323612981034016
0.0323665917004041
0.0323650918019884
0.0323637200569182
0.0323623044197358
0.0323609368596813
0.03235961985837
0.0323583227388353
0.0323570485879759
0.0323558135355324
0.0323546133326984
0.0323534568141895
0.0323523083503286
0.0323511975283432
0.0323501350066351
0.0323490984971796
0.0323481140666474
0.0323471662480545
0.0323462344661541
0.032345341215497
0.0323444931205037
0.0323436805900694
0.0323428948293881
0.0323421373060788
0.0323414052183329
0.0323407272035665
0.0323400840604431
0.0323394605554645
0.0323388741467235
0.0323383277523581
0.0323378210910685
0.0323373148997061
0.0323368419089643
0.0323364208289449
0.0323360239342147
0.0323356553391742
0.032335314765138
0.0323349974822066
0.0323347330593577
0.0323344779981596
0.032334251929684
0.0323340712781586
0.0323338928458275
0.0323337448585129
0.0323336229141953
0.0323335259471247
0.0323334319626435
0.0323333705558242
0.032333363875255
0.0323333553626626
0.0323333683143941
0.0323334120035419
0.0323334764499281
0.0323335589856348
0.0323342021457256
0.0404875481522451
0.0404875825401167
0.0404876513138483
0.0404877544753577
0.0404866540271354
0.0404798632403824
0.040460801923647
0.0404227985729155
0.040359255822257
0.0402637031771049
0.0401296016996291
0.0399511318378441
0.0397222840635628
0.0394376493677194
0.0390929265785588
0.0386836796643137
0.0382060815823812
0.0376578512271616
0.0370377215168394
0.0363440330867838
0.0355780913567867
0.0347406483640731
0.033834559839596
0.0328624504518943
0.0318347515173177
0.0307627528299184
0.0296614706152775
0.0285495928684905
0.0274453370282452
0.0263665223965001
0.0253312828419747
0.0243563852184233
0.0234580823427747
0.0226500704697705
0.0219411401892256
0.0213386651802996
0.020843654209647
0.0204526520309472
0.0201585265540101
0.0199541891179686
0.0198342141621844
0.0197933682679605
0.0198267064981446
0.0199298737530243
0.0200988831348779
0.0203296516569287
0.0206186210517151
0.0209621735190734
0.0213566638616652
0.0217996053810472
0.0222880339608568
0.0228183388435346
0.0233870736123814
0.0239916015284003
0.0246278593301375
0.0252913795203485
0.0259773491384227
0.026682334861657
0.027401452418173
0.0281302377880247
0.0288649768309335
0.0296028354920236
0.0303387189769536
0.0310689771024395
0.0317915178328088
0.0325022174457954
0.0331971290447206
0.0338744107046361
0.0345305881025373
0.0351622897955231
0.0357680533162879
0.0363452876737836
0.0368916726761777
0.0374045924093541
0.0378824942673773
0.0383238347243162
0.0387272082608772
0.0390913592395876
0.0394149315848366
0.0396971807160858
0.0399379835454844
0.040137125283796
0.0402943620128898
0.0404102516965502
0.0404854184094127
0.0405206718946591
0.040527337016728
0.0405254577635909
0.0405237407093645
0.0405219680014063
0.0405202556539236
0.0405186064525239
0.040516982453658
0.0405153869093525
0.0405138405309403
0.0405123376137456
0.0405108895210133
0.040509451558048
0.0405080605537528
0.0405067301482953
0.0405054322967482
0.0405041995647371
0.0405030128281767
0.0405018461090444
0.0405007276081768
0.0404996656536807
0.0404986482623892
0.0404976643925076
0.040496715873913
0.0404957992181161
0.0404949501659104
0.0404941449375497
0.0404933641946538
0.0404926299493789
0.0404919457559875
0.0404913113648031
0.0404906776139651
0.0404900853041641
0.040489558074415
0.0404890611164933
0.040488599594608
0.0404881731596289
0.0404877758965909
0.0404874447612529
0.040487125479965
0.0404868423445535
0.0404866161995884
0.0404863927825931
0.0404862074937219
0.0404860548126846
0.0404859334085485
0.0404858157565664
0.0404857388528305
0.0404857304979345
0.0404857198649558
0.0404857360782369
0.0404857908002436
0.0404858714992775
0.0404859748570523
0.0404867801939723
0.0490325340899195
0.0490325757353568
0.0490326590239893
0.0490327839579492
0.0490314509411098
0.0490232267860121
0.0490001466510245
0.0489541387439798
0.0488772244014857
0.04876158199018
0.0485993115798967
0.0483833804479998
0.0481065439690781
0.0477622626393606
0.0473453575938988
0.0468504882205539
0.0462730451072992
0.0456102738745863
0.0448606688751145
0.044022279343394
0.0430966040444252
0.0420846987565891
0.0409898914352334
0.0398155179426547
0.0385737114551522
0.0372782925712465
0.0359470030837226
0.034602235720839
0.0332659460737716
0.0319595733733562
0.0307049438289799
0.0295224154267424
0.0284316948212658
0.0274496499062483
0.0265873529754253
0.0258539040321647
0.0252510427791946
0.0247747186155346
0.0244163926644486
0.0241673503328902
0.0240209522933606
0.023970814516997
0.0240108824735783
0.0241358256579969
0.0243407621290898
0.0246206891827951
0.0249712620789237
0.0253880271822548
0.0258665651423414
0.0264038163187476
0.0269961651685678
0.0276391684901718
0.0283287047725464
0.0290614909431662
0.0298326223680975
0.0306365997530008
0.0314676961672318
0.0323216711940782
0.033192646767889
0.0340751954922054
0.0349649190695089
0.035858300045663
0.0367491783604602
0.0376332323920414
0.0385078879095378
0.039368114866755
0.0402092194500079
0.0410289709562646
0.0418230988811713
0.0425876277995268
0.0433207343250709
0.0440193117963523
0.0446805315580316
0.0453012493109837
0.0458795943669121
0.046413690309357
0.046901849142465
0.0473425409281863
0.047734134269721
0.0480757273105195
0.0483671766756926
0.0486082141110888
0.0487985494359474
0.048938855380645
0.0490298856988247
0.0490726184705833
0.0490807211001222
0.0490784442401309
0.0490763652629559
0.0490742183044057
0.0490721445806985
0.0490701471960264
0.0490681805906963
0.0490662481896526
0.0490643755064388
0.049062555310331
0.0490608016148693
0.0490590602240878
0.049057375557021
0.0490557643790953
0.0490541926114918
0.0490526996314533
0.0490512624818137
0.0490498495219038
0.0490484949333355
0.0490472088298747
0.0490459767212718
0.0490447852105255
0.0490436365072547
0.0490425264032719
0.0490414980844785
0.0490405229724888
0.0490395774264377
0.0490386882317659
0.0490378596093956
0.0490370913428706
0.0490363238952687
0.0490356065255741
0.0490349680389056
0.0490343662034532
0.0490338072837466
0.0490332908567573
0.0490328097655405
0.0490324087079461
0.0490320221167613
0.0490316791687616
0.0490314053415285
0.0490311347754908
0.04903091039038
0.0490307254937875
0.0490305784768552
0.0490304360186522
0.0490303428723917
0.0490303327625979
0.0490303199072513
0.0490303395390012
0.0490304058246687
0.0490305035583242
0.0490306287399828
0.0490316040566621
0.0579886457889762
0.0579886950411665
0.0579887935430542
0.0579889412970054
0.0579873645220647
0.0579776380375183
0.0579503457405499
0.0578959481939682
0.0578050190000642
0.0576683204076004
0.0574765260505333
0.0572213316973411
0.0568941982704963
0.0564874014086814
0.0559948423963212
0.0554102325991205
0.0547281426700748
0.0539453222369289
0.0530600157153836
0.0520699671058685
0.0509768777321006
0.0497821221447972
0.0484895230982482
0.0471031623929995
0.0456369559785978
0.0441073775227276
0.0425350245320706
0.040946172015456
0.0393666930129766
0.0378218199586883
0.0363372478793079
0.0349370979100305
0.0336446957749021
0.0324802338552101
0.0314571773730516
0.0305864365920554
0.0298705204133906
0.0293047557066118
0.0288791302875591
0.0285832251563249
0.0284091286866458
0.0283492506561158
0.0283963731234119
0.0285441427727891
0.0287867390611997
0.0291181947429341
0.0295333404722775
0.030026845903934
0.0305934803160524
0.031229583204584
0.0319308561383814
0.0326919830452967
0.0335081353047365
0.0343753519772139
0.0352878468201577
0.0362390387863863
0.0372222436602808
0.0382323748146984
0.0392625128552262
0.0403062206553924
0.041358383289556
0.0424147667309679
0.0434680944828949
0.0445133415294984
0.0455474281021283
0.0465643741179704
0.0475587031651559
0.0485277770359128
0.0494664905496899
0.0503702355185448
0.0512368101113034
0.0520625672499234
0.0528441452871795
0.0535778461606712
0.054261465803432
0.0548927788602685
0.0554698012895715
0.0559907156208448
0.0564536019059359
0.0568573934359081
0.0572019255806726
0.0574868740210809
0.0577119000983269
0.057877796820607
0.0579854538536833
0.0580360257066685
0.0580456350058585
0.0580429414086964
0.0580404830954504
0.0580379438799148
0.0580354913930479
0.0580331290729192
0.0580308033773161
0.0580285179122499
0.0580263032247261
0.0580241504844053
0.058022076482757
0.0580200170652937
0.0580180246064044
0.0580161191471758
0.0580142602845816
0.0580124945351815
0.0580107949242833
0.0580091238762041
0.0580075218410186
0.0580060008040717
0.0580045436474832
0.0580031345056079
0.0580017759861391
0.0580004631265856
0.0579992469161252
0.0579980937469163
0.057996975468479
0.0579959238693284
0.0579949438690331
0.0579940352860567
0.0579931277091095
0.0579922792624796
0.0579915241659826
0.0579908124070214
0.0579901514034124
0.0579895406545866
0.057988971701967
0.0579884973579224
0.0579880402183794
0.0579876345800326
0.0579873107763921
0.0579869907927997
0.0579867254304178
0.0579865067682829
0.0579863329062578
0.0579861644483257
0.0579860542780601
0.0579860423289228
0.0579860271443209
0.0579860503590044
0.0579861287646745
0.0579862443525502
0.0579863924081084
0.0579875458828678
0.0673756637693287
0.0673757209942597
0.0673758354413569
0.0673760071132404
0.0673741748523026
0.0673628737582652
0.0673311666484828
0.0672679758382283
0.0671623575552704
0.0670035898160486
0.0667808512142797
0.0664845048544715
0.066104654973932
0.065632335365723
0.0650604832544042
0.0643818164245496
0.0635900461948715
0.0626814023693165
0.0616538674704165
0.0605048657007784
0.0592363106240935
0.0578499111746807
0.0563500086091982
0.0547414668992278
0.0530400698986317
0.0512650723224169
0.0494400641434985
0.0475953889911708
0.0457610254780035
0.0439661811651484
0.0422406052688757
0.0406123626224576
0.0391085715142163
0.0377529089157844
0.036561349049743
0.0355467001116469
0.0347122792527837
0.0340527618382984
0.0335565922671563
0.0332115649698485
0.0330084347210476
0.03293834692451
0.032992863967176
0.0331645601976039
0.0334466309840171
0.0338320977520722
0.0343149266818388
0.0348888680998033
0.0355478408937973
0.0362875545515609
0.0371029948188052
0.0379879305084641
0.03893679217702
0.0399449081152679
0.0410055682169576
0.0421110574285911
0.0432536886272105
0.0444274880728546
0.045624445125332
0.0468370643448166
0.0480594799933875
0.049286706800713
0.0505102981724883
0.0517244920881423
0.0529256788233704
0.0541068824782421
0.0552618065592623
0.0563873857334966
0.0574776398597298
0.0585272977296141
0.0595337607515093
0.0604928154729483
0.0614005415678642
0.0622526605971908
0.0630466190808503
0.0637798259154277
0.0644499867848091
0.0650549828291311
0.0655925916771966
0.0660615738300928
0.0664617423854355
0.0667927142432111
0.0670540999412012
0.0672468185453713
0.067371902168607
0.0674306902327444
0.0674418786944733
0.0674387483093839
0.0674358924091581
0.0674329420638975
0.0674300925903971
0.0674273477766272
0.06742464571386
0.0674219901976991
0.0674194170510092
0.0674169157667119
0.0674145060479947
0.0674121133025871
0.0674097982430301
0.0674075843437119
0.0674054245731145
0.0674033729305803
0.0674013982305662
0.0673994566769131
0.0673975952896812
0.0673958280158485
0.0673941349835635
0.0673924977396314
0.0673909193090384
0.0673893939387236
0.0673879807965369
0.067386641003264
0.0673853416817134
0.0673841198643114
0.0673829812028077
0.0673819255523671
0.0673808711040112
0.0673798852738944
0.0673790079571194
0.067378180985899
0.06737741298684
0.0673767033780295
0.0673760423367398
0.067375491180177
0.0673749600980093
0.0673744887530991
0.0673741125685404
0.0673737407897256
0.0673734324785445
0.0673731784263006
0.0673729764276016
0.0673727807190101
0.0673726527056574
0.067372638828659
0.0673726212027838
0.0673726481727801
0.0673727392815549
0.0673728735826839
0.0673730456126762
0.0673743858173077
0.0772143202508274
0.0772143858320963
0.0772145169915734
0.0772147137321557
0.0772126136930282
0.0771996622312403
0.0771633279048762
0.0770909207794187
0.0769699067133265
0.0767880080938454
0.0765328365622907
0.0761933584559398
0.0757582560866462
0.0752172616662426
0.0745623020094403
0.0737850535528766
0.0728783269705653
0.0718378072535209
0.0706612024775695
0.0693456017448613
0.0678931410199057
0.0663058798991377
0.0645887030099853
0.0627472943635365
0.0607993951350448
0.0587671751237679
0.0566773603029603
0.0545645583750816
0.052463050818004
0.0504062111800205
0.0484280373945624
0.0465607273777607
0.0448353740071931
0.0432793065920017
0.041911129717664
0.0407456412250236
0.0397870068306971
0.0390292197376768
0.0384591072175331
0.0380625910661164
0.0378290282369571
0.0377482388256039
0.0378105066657288
0.038007281956787
0.0383307284011725
0.0387728071717827
0.0393265782455932
0.0399848280834136
0.040740584280679
0.0415888958406932
0.0425239981902273
0.043538700824842
0.0446266580501551
0.0457824529880235
0.04699840733175
0.0482656173158925
0.0495753449618053
0.0509206866026211
0.0522924879780045
0.0536821444141096
0.0550830034434403
0.0564892922705653
0.057891337944116
0.0592826061418875
0.060658931619186
0.0620122946964586
0.0633355394616804
0.0646251528965496
0.0658742377130158
0.0670768279148576
0.0682299089845219
0.0693286738761397
0.0703686166745618
0.0713448506620275
0.0722544561382086
0.0730944586395862
0.0738622386583452
0.0745553614284161
0.0751712876135894
0.0757085966074419
0.0761670781679172
0.0765462875730551
0.0768457821180239
0.0770666129866836
0.0772099615896314
0.0772773611546279
0.0772902047617887
0.077286616573289
0.0772833439570797
0.077279962701325
0.0772766971409301
0.0772735514305555
0.0772704548924946
0.0772674115208599
0.0772644626684564
0.0772615960706191
0.0772588344824907
0.0772560923716832
0.077253439190112
0.0772509020106959
0.0772484268544981
0.077246075563632
0.0772438125390772
0.0772415874650072
0.0772394542474933
0.0772374288895313
0.0772354886328892
0.0772336123121823
0.0772318033898394
0.0772300552842211
0.0772284357353027
0.0772269003389471
0.0772254112636923
0.0772240110383306
0.0772227060819124
0.0772214962881896
0.0772202879019686
0.0772191580783926
0.0772181526609487
0.0772172049342626
0.0772163247919066
0.0772155115666083
0.0772147540059958
0.0772141223411996
0.0772135137588339
0.0772129735460241
0.077212542460343
0.0772121163942452
0.0772117630678786
0.077211471922804
0.0772112404337042
0.0772110161633333
0.0772108694484031
0.0772108535507752
0.0772108333662158
0.0772108642721959
0.0772109686952307
0.0772111226099815
0.0772113197678911
0.0772128556865892
0.0875263449422423
0.0875264192819024
0.0875265679578406
0.0875267909732551
0.0875244102723091
0.0875097290391597
0.0874685448713089
0.0873864780199741
0.087249327465073
0.0870431851294553
0.0867540203256364
0.0863693354326149
0.0858763224495551
0.0852633493938513
0.084521284081827
0.0836407115272552
0.0826134984517256
0.0814347588345293
0.0801019131332588
0.0786116992866534
0.0769664863178215
0.0751687014944195
0.0732237988943006
0.0711383221908294
0.0689320637185852
0.0666302487854574
0.0642628899324455
0.0618690638851586
0.059487561846672
0.0571561235105876
0.0549131995625014
0.05279531959069
0.0508377419583606
0.0490716240927598
0.0475183279593497
0.0461947370600518
0.0451059075467724
0.044245118147002
0.0435975016052626
0.0431470169085379
0.0428815558943601
0.0427895495121837
0.0428599413817509
0.0430830033063323
0.0434498175179282
0.0439512337301322
0.0445793620166188
0.0453259783744835
0.0461831762330694
0.0471453122129507
0.0482058352812946
0.0493565493337061
0.0505902952344334
0.05190087493633
0.0532795954317553
0.0547163069443552
0.0562011703024981
0.0577263070735413
0.0592813644478702
0.0608565751470631
0.062444462273298
0.0640384275149078
0.0656275125866552
0.0672043738264147
0.068764263691814
0.0702980684663829
0.0717977315588169
0.0732592707186761
0.0746748273179188
0.076037707242933
0.0773444599822285
0.0785896563603746
0.0797681766760172
0.0808744966831872
0.081905312844787
0.0828572488819499
0.0837273444578994
0.0845128336893081
0.0852108450316014
0.0858197680543688
0.0863393680563447
0.0867691357192572
0.0871085725378976
0.0873588681670227
0.0875213604958501
0.0875977858799576
0.0876123642728963
0.0876082962543588
0.0876045868728205
0.0876007539740855
0.0875970523075611
0.0875934864121955
0.0875899764194805
0.0875865265313621
0.0875831838969167
0.0875799344091372
0.0875768040221207
0.087573695736846
0.0875706881651315
0.0875678121516099
0.0875650064356556
0.0875623410794566
0.0875597758581351
0.0875572536226236
0.0875548354962247
0.0875525396368813
0.0875503402612079
0.0875482133609776
0.0875461628571913
0.0875441812997946
0.0875423454132664
0.0875406050028079
0.0875389170441615
0.0875373298270938
0.087535850574773
0.0875344792215162
0.0875331094909934
0.0875318287459488
0.087530689064524
0.0875296147724653
0.0875286170912834
0.0875276952641504
0.0875268365403898
0.0875261204938269
0.0875254306825256
0.0875248182883857
0.0875243296601241
0.0875238466947776
0.0875234461874187