/*--------------------------------*- C++ -*----------------------------------*\
| =========                 |                                                 |
| \\      /  F ield         | OpenFOAM: The Open Source CFD Toolbox           |
|  \\    /   O peration     | Version:  v2006                                 |
|   \\  /    A nd           | Website:  www.openfoam.com                      |
|    \\/     M anipulation  |                                                 |
\*---------------------------------------------------------------------------*/
FoamFile
{
    version     2.0;
    format      ascii;
    class       volVectorField;
    location    "7000";
    object      grad(p);
}
// * * * * * * * * * * * * * * * * * * * * * * * * * * * * * * * * * * * * * //

dimensions      [0 1 -2 0 0 0 0];


internalField   nonuniform List<vector> 
14000
(
(-0.00132510300184979 1.9321873636635e-05 0)
(0.00262281755616456 0.000160399582705559 0)
(0.011603795835868 0.000342012718803899 0)
(0.0192177115528573 0.000475983075463413 0)
(0.0275054653662677 0.00052067625666186 0)
(0.0339894871368983 0.000507866994337415 0)
(0.037004807197367 0.000499859623250641 3.65914378350061e-18)
(0.03795591834683 0.000512316451219478 0)
(0.037029267537536 0.000539359963442232 0)
(0.034655403842397 0.000544259251264592 -1.58719917123624e-17)
(0.0302118769663655 0.00045444137122444 0)
(0.0246610450471515 0.000247821485720131 3.32935136840109e-17)
(0.0174051586541576 -0.000202078282901073 -3.33222749909186e-20)
(0.00786002006104412 -0.000976271358224016 6.73980885310361e-20)
(-0.00262705942914406 -0.00212121794705011 6.99739290480146e-17)
(-0.0154001163552234 -0.00383887543803141 -7.05372964105254e-17)
(-0.0309329469549074 -0.00630563777867728 -7.07332005720702e-17)
(-0.0492227416843862 -0.00961796442612362 -7.02616361917354e-17)
(-0.0688514447599686 -0.0137623106573054 -6.90518112539283e-17)
(-0.094699406445436 -0.019579066437267 -1.34085739699714e-16)
(-0.123166253207375 -0.0264580506896762 1.26962142949792e-16)
(-0.158214976586018 -0.0355834295774753 6.58353233158763e-21)
(-0.200390589073866 -0.0466803371964787 1.02187233066883e-16)
(-0.25776463215836 -0.0619711537606249 8.20301172895044e-17)
(-0.325188583166271 -0.0785389145861557 1.04191952412882e-21)
(-0.397728757188538 -0.0964314076119577 1.14908774640993e-17)
(-0.485754897331384 -0.114946498939549 0)
(-0.569030182907431 -0.129212086184143 1.13090003910577e-16)
(-0.646732138430054 -0.138369026670598 -2.00250688336612e-16)
(-0.719113674195146 -0.141673530303456 -3.03017221651885e-16)
(-0.772468380445159 -0.136125889731805 -1.16418744058621e-19)
(-0.798018652161205 -0.121701987164176 5.51744184577612e-16)
(-0.786518273118512 -0.09839282175527 0)
(-0.720348168256881 -0.0684956466165285 0)
(-0.624005119566965 -0.0401532209181197 0)
(-0.489838853459438 -0.0138823349132597 0)
(-0.334700199721755 0.00345815123746897 -2.8209555855019e-19)
(-0.200967356074927 0.0119864650665736 -7.99601683650163e-21)
(-0.0961466890254919 0.0136803724713365 2.95765694455329e-19)
(-0.021986333990249 0.0125925919054022 0)
(0.0487334377634774 0.00963979575621459 -2.95812703407449e-19)
(0.109281329543595 0.00512907989851123 4.65692318782255e-21)
(0.158358610529829 -9.39602238737226e-05 -7.45643885608641e-17)
(0.200727942190058 -0.00581656756139467 -1.44993091966519e-16)
(0.23855845334735 -0.0118884929805593 2.78366606483684e-16)
(0.266539887093655 -0.0177088057088196 2.64460616704347e-16)
(0.291008091557127 -0.0234168073122876 -2.49540524823237e-16)
(0.308728601119298 -0.0286957710450976 4.67711271679967e-16)
(0.318146424879687 -0.0330195208310451 0)
(0.325018062415442 -0.0370009804622409 0)
(0.327200837833684 -0.0403049417333215 3.69819747370192e-16)
(0.320772854291533 -0.042232758329548 3.37005080192913e-16)
(0.309640935675251 -0.0431895059657505 1.55481959829417e-19)
(0.295747462289997 -0.0434135556915892 -5.56450941774406e-16)
(0.278555139266807 -0.0427570355573358 -2.52136245638865e-16)
(0.259588941463766 -0.0413746264813133 2.27721190681768e-16)
(0.239173580906434 -0.0393438281838896 -2.08414032023938e-19)
(0.220935878307126 -0.0373065091707869 7.41145835937031e-16)
(0.203426139854487 -0.0350531978438238 -1.69860142065927e-19)
(0.187665620311308 -0.0327846689287358 -3.02185512371559e-16)
(0.17247712404209 -0.0304408872149782 1.2047915039765e-19)
(0.160602354324453 -0.028512830627917 -1.16359622459813e-19)
(0.149649674302402 -0.0265375110178872 2.23745147678942e-16)
(0.139629934229701 -0.0246554098768327 1.97894218652835e-19)
(0.131420146721241 -0.0230428736777856 -9.29597026472625e-20)
(0.124704515143096 -0.0215610586367001 -5.03788116074522e-21)
(0.11810643046849 -0.0200567093786378 7.45335650225942e-17)
(0.113020772673601 -0.0188201619220093 3.33918958056602e-20)
(0.108592496929633 -0.0175837825737893 6.04577025327684e-17)
(0.104361689583778 -0.0163956741898457 -1.08222462332087e-16)
(0.1008822388626 -0.0152988242053556 4.81719556348347e-17)
(0.0974484327716017 -0.0142065033756436 -2.43514147965591e-20)
(0.094566469039331 -0.0131706553306265 -6.95575549832534e-20)
(0.0914985159837451 -0.0121029883645828 6.85126984149064e-20)
(0.0886179913664668 -0.0110796718330214 -2.85708692756923e-17)
(0.0855418974712897 -0.0100446407061056 2.43806681148717e-17)
(0.0823422023681462 -0.00903055165528125 2.03845964616993e-17)
(0.078870973994428 -0.00802606529279353 6.6011015014915e-21)
(0.075064075614009 -0.00704225813329938 2.92346160089134e-20)
(0.0706897631553793 -0.00608637237964578 5.05982229870991e-18)
(0.0658876629370063 -0.00518179923084285 2.84528907191402e-20)
(0.0604084977986576 -0.00434014146943117 -2.28758167629547e-18)
(0.0542454189638793 -0.00357549523982792 -5.40308152887003e-19)
(0.0469749919914034 -0.00291097809031127 8.1781004631228e-21)
(0.0391893474969346 -0.00238806224014612 -2.11789281840239e-19)
(0.0286154887683558 -0.00197061742615532 9.92477298783589e-20)
(0.0160295766341369 -0.00149133987845972 1.033710584887e-20)
(0.0102382323653738 -0.00106212418794726 -1.97252897101258e-20)
(0.00725441401210631 -0.000860100315940597 -5.822853615561e-22)
(0.0034028927946467 -0.000689348183212534 9.91414886905998e-21)
(0.000999459214179506 -0.00056844621516659 -1.01121238360218e-20)
(-0.00094447235917567 -0.000464473923448136 1.01121116283774e-20)
(-0.00243870624211881 -0.000382211917753869 -5.07603127980685e-21)
(-0.00353644734893471 -0.000309418156543068 4.92027037463792e-21)
(-0.00427871200440992 -0.00025359435222337 0)
(-0.00480963190348714 -0.000203651022721125 4.4135898577498e-21)
(-0.00507436948149924 -0.000166764776255469 -2.03649543548877e-22)
(-0.00526673177519832 -0.000134510465711631 -2.11369616392046e-22)
(-0.00528785558550415 -0.000106081460540993 -2.12216856879756e-22)
(-0.00518043363340994 -8.66986762300055e-05 -6.90456527884732e-21)
(-0.00508259509046723 -6.83756190198378e-05 3.57842090494009e-21)
(-0.00486620149944748 -5.34955347190858e-05 0)
(-0.00463249903936791 -4.46168322479192e-05 -7.7117857381335e-22)
(-0.0044335051420402 -3.41269385687384e-05 0)
(-0.00417116614708666 -2.61743615830583e-05 0)
(-0.00390319515724646 -2.01952275025045e-05 6.41617445237959e-22)
(-0.00364925423599117 -1.60917570980395e-05 1.20767719222801e-21)
(-0.00342140156955752 -1.2172498632828e-05 0)
(-0.00317874851335279 -9.20176058418289e-06 0)
(-0.00298940971061942 -6.10412191502085e-06 5.04704242487111e-22)
(-0.00274242118262661 -2.41926982136959e-06 -9.50363428942266e-22)
(-0.00254022923790611 -4.04933223639532e-06 8.99343774466418e-22)
(-0.00240010465568922 -4.01229706957978e-07 8.48524970029707e-22)
(-0.00221560897095371 -3.52032951474298e-07 8.03016305256792e-22)
(-0.00207239606490622 2.07616728830193e-06 -1.47944757485816e-21)
(-0.001895414549613 6.52939055543255e-07 1.47938086565597e-21)
(-0.00184037104970091 4.74885135038114e-07 6.64758420786887e-22)
(-0.00173485012924425 4.45374172750592e-06 1.24111513447942e-21)
(-0.00158647540777212 2.7068929023911e-06 -6.61773654239116e-22)
(-0.00152991018468582 3.40034548259667e-06 -3.06972969200528e-23)
(-0.00146496556110127 3.39111866612667e-06 5.2311137906982e-22)
(-0.00138595419948273 3.42476951845137e-06 -1.55840712755736e-21)
(-0.0013801667436374 4.00971111071419e-06 5.23538595225085e-22)
(-0.00126575154323687 5.43034687196573e-06 -2.02213916774525e-26)
(-0.00127797783216411 1.08335707364757e-06 -8.92142323965672e-22)
(-0.00127486085627723 7.03116267875558e-06 4.05879970611376e-22)
(-0.00118232384662538 1.69657166175249e-06 -4.05858621904864e-22)
(-0.00125044477846238 4.01513988044374e-06 3.69387287465563e-22)
(-0.00122127651274398 3.12291771924462e-06 -1.21801880634128e-23)
(-0.00123583925112394 3.34462272515426e-06 -1.2192665332795e-23)
(-0.00122833934956386 2.32195361105354e-06 -4.3669026048832e-22)
(-0.00130706633353668 9.24788374231024e-07 1.41556964253625e-22)
(-0.00132860248856269 3.8629489262642e-06 0)
(-0.00133455554194698 1.44561894128817e-06 -1.01727625452534e-22)
(-0.00136502996635596 -1.82922543670953e-06 7.15695667701346e-24)
(-0.00167073698637558 5.92358044947404e-07 1.98630944505598e-22)
(-0.00132824331858819 -4.8632294870982e-06 5.74880452748485e-23)
(-0.00229575794650715 -4.26537963157602e-06 1.38670181255558e-22)
(-0.00142048434547492 -7.64525482932194e-06 -1.23983048612839e-23)
(-0.0020605018770274 4.71704525826196e-05 4.18989589405988e-22)
(-0.0013152546389598 -0.000381277730555405 -1.56846563779726e-21)
(0.00264476382834085 -2.4521075780403e-05 1.56846585780376e-21)
(0.011623744026508 0.000448702154260271 0)
(0.0192257871767201 0.000692397364589439 0)
(0.0275015000748606 0.000612186136521783 -2.0767013910019e-19)
(0.0339831686329023 0.000309936798075421 0)
(0.0370057314312418 1.54100576696726e-06 -3.50523182789818e-18)
(0.03796980407727 -0.000266482369687371 1.38337849494385e-20)
(0.0370596016497879 -0.000505455187167188 -1.45775583761653e-20)
(0.0347046907317092 -0.000805255523333314 1.51583595756583e-17)
(0.0302898475916312 -0.00129467953089044 1.52990534564902e-20)
(0.024782831700679 -0.00204374011768726 -4.66165138696708e-20)
(0.0176061839153047 -0.00330694591876699 -3.3709010059862e-22)
(0.00820295019906345 -0.00521521324872869 -1.49377644934247e-22)
(-0.00205206868401477 -0.00788515244995737 6.17027931565325e-23)
(-0.0144483019610954 -0.0117007295788308 6.73660039017752e-17)
(-0.0293780870155879 -0.016979989591925 6.74527807492762e-17)
(-0.0467596979105466 -0.0238640451941474 -6.69376844095796e-17)
(-0.0651295459577391 -0.0324466156458603 0)
(-0.0890641062450447 -0.0442316959083164 0)
(-0.115073890313018 -0.0580078933113722 -1.39523124761853e-20)
(-0.146576695964732 -0.0763347883152254 1.44023203756885e-20)
(-0.184277151200738 -0.098378267133148 0)
(-0.235041243124949 -0.12862975953088 1.88261442222031e-21)
(-0.295279003324571 -0.160246376566796 -2.19915973632436e-22)
(-0.359512052175745 -0.195086407994163 -9.05303549102433e-18)
(-0.439361179703952 -0.229940427839501 -1.80812452381336e-20)
(-0.516687790926053 -0.256163908894532 1.88566657759896e-20)
(-0.591351651727194 -0.272600105846094 1.90973763659096e-16)
(-0.664100862070086 -0.277213290167352 -1.98581852641677e-18)
(-0.722420304866725 -0.263495711847546 0)
(-0.756749376040104 -0.231590399281664 -5.26109660456251e-16)
(-0.757033868261855 -0.180664109859629 -6.5820497064425e-16)
(-0.703517788577549 -0.116313894377542 0)
(-0.616887601047074 -0.0566061093295535 0)
(-0.489931718004661 -9.23082011464862e-05 0)
(-0.337952488390157 0.0353560805994821 0)
(-0.204773841346123 0.0517756669207262 0)
(-0.0991283408015103 0.0532368549733927 0)
(-0.0238621301532276 0.0497911826966929 0)
(0.0478708744136707 0.0438752446880759 1.78002160069042e-20)
(0.109209713216787 0.0349796576544113 2.28192444447618e-18)
(0.158824068176316 0.0246921204584123 0)
(0.201451815330333 0.0135203763440708 2.86995577645514e-19)
(0.239261434706929 0.00177978858039294 -2.91613519222339e-19)
(0.266961053383985 -0.00979845425633799 -2.52809518560754e-16)
(0.29094136337996 -0.0210464679868629 2.38185632831634e-19)
(0.308006279074308 -0.0316292724119851 -4.4649509392127e-16)
(0.316682101174768 -0.0406064742526172 1.97001773448185e-19)
(0.322731389310545 -0.0488026563382152 -1.93298913111455e-19)
(0.324090125910288 -0.0557941629363089 -3.52691017609259e-16)
(0.31696896924997 -0.0603939400958135 2.75741285366155e-19)
(0.30522022545971 -0.0633044485767233 -2.93084031978405e-16)
(0.290865236474392 -0.0647233996866298 2.6522374871129e-16)
(0.273359885679136 -0.0646414564822177 4.8059236070166e-16)
(0.254293499106031 -0.0631176404348749 -2.16621360443772e-16)
(0.233895934365362 -0.0604740325667182 1.84333039599748e-19)
(0.215762971084185 -0.0576358451692131 -3.53720834536438e-16)
(0.198444429385108 -0.0544025221132296 3.19543164952045e-16)
(0.182954334654512 -0.0509960792251237 2.88818386440759e-16)
(0.168055807420163 -0.0474302647840164 -2.60896712213233e-16)
(0.156449729733853 -0.0444918210719407 2.36216736785882e-16)
(0.145833065870843 -0.0413968279824742 -2.13461260167852e-16)
(0.136130006115456 -0.038420783789771 -9.09025163937803e-20)
(0.128200972349193 -0.0358915732614581 8.87784709013426e-20)
(0.121785049640216 -0.0335290861558275 3.15990424592958e-16)
(0.11548789812358 -0.0310915036057076 -7.12510363640536e-17)
(0.110647652864974 -0.0291369037051101 6.4236534030023e-17)
(0.106498537094991 -0.0271132222187172 1.69256036555458e-19)
(0.102514875084492 -0.0251926865289979 1.03331114528814e-16)
(0.0992733369698672 -0.0233978863465914 0)
(0.0960640728662466 -0.0216289908079235 4.08163988454248e-17)
(0.093395798898924 -0.0199436561548084 1.40975764436976e-19)
(0.0905312880683944 -0.0182120334362077 -1.23199062654677e-19)
(0.0878314641415943 -0.0165653731511949 5.69517696016406e-20)
(0.0849220519128144 -0.0149148325210293 -4.19774194359798e-20)
(0.0818662947397704 -0.0133219726542475 1.95635058720566e-17)
(0.078520956624573 -0.0117667589548959 -2.81812193692917e-20)
(0.0748171766912447 -0.0102788978798201 2.79295156751088e-20)
(0.0705240404601285 -0.00887494874974219 -4.84415089774983e-18)
(0.0657790870289713 -0.00761500723401541 0)
(0.0603385168912389 -0.00651271052019242 0)
(0.0541945794036238 -0.00562879397140092 0)
(0.0469307775716339 -0.00497873442061849 -2.47074060847136e-20)
(0.0391410674244907 -0.00467557105993034 2.07048559203754e-19)
(0.0285772202829246 -0.00465541892818507 -9.92444286794083e-20)
(0.0160282340997368 -0.00429192950061522 1.88543604182328e-21)
(0.0102524266476567 -0.00335692826729735 4.18299981703306e-21)
(0.00725762858371351 -0.00283181306971801 -5.69804175004596e-22)
(0.00340253982343971 -0.00252429314316814 1.4799943857078e-22)
(0.0010013117340477 -0.00222503073245854 -9.6427418129234e-21)
(-0.000942074132776454 -0.00197563923542573 1.92133182849188e-20)
(-0.00243548588584014 -0.00175838852449541 -1.86514667674715e-22)
(-0.00353257035443072 -0.00155231040046987 -9.38405811186567e-21)
(-0.00427455811890906 -0.00137595356517373 8.64621910157152e-21)
(-0.00480533015794721 -0.00121112866315391 -9.32380869476397e-21)
(-0.00507027442106005 -0.00107214127457744 0)
(-0.00526250955281007 -0.000947307243056534 0)
(-0.00528373159597313 -0.000827620330395974 -3.61110181240254e-21)
(-0.0051767257453276 -0.000732004307933757 -2.4044289532369e-22)
(-0.00507895956432881 -0.000643623075142989 6.63126810630631e-21)
(-0.00486294368711715 -0.000562328270361696 -9.66385197808401e-22)
(-0.00462964559622185 -0.000501378524661618 -3.03217293533555e-21)
(-0.00443070099199557 -0.000440073691082333 0)
(-0.0041685741190016 -0.000384807818408082 6.50447021995465e-22)
(-0.00390096197662743 -0.000338483307780349 -6.12206216300151e-22)
(-0.00364731605173891 -0.000300473179297744 -5.76114393289654e-22)
(-0.00341962365749648 -0.000265375218038105 0)
(-0.00317715527203099 -0.000234605838433867 1.98398080297791e-21)
(-0.00298780639694559 -0.000206192674784896 -1.98397413328813e-21)
(-0.00274118242862424 -0.000176195924907103 9.06799530895669e-22)
(-0.00253924050885493 -0.000164568254638474 -1.66737728992966e-21)
(-0.00239906894188461 -0.000140968028939976 -7.1739334694062e-22)
(-0.00221468292737245 -0.000126272631270223 1.57550324195772e-21)
(-0.00207163289219952 -0.000107896594524008 -1.41137817818459e-21)
(-0.00189500990398062 -0.000100821846493821 7.24586248755835e-22)
(-0.00183971500557489 -9.38709164497879e-05 -1.26837105088961e-21)
(-0.00173418528163855 -7.31713383115597e-05 1.85416237201993e-21)
(-0.00158613961934539 -6.9327788730552e-05 -1.20195888426526e-21)
(-0.00152959016316654 -6.22749581394624e-05 0)
(-0.00146467741565297 -5.57292137033871e-05 0)
(-0.0013857027479707 -5.04355136214371e-05 -4.99381173467255e-22)
(-0.00137979408600113 -4.41388314993566e-05 4.74080076771348e-22)
(-0.00126575790799922 -3.48891523787338e-05 -4.46646317632453e-22)
(-0.00127778542268089 -4.44796895390732e-05 1.39670424513317e-23)
(-0.00127464544724816 -2.39434882683629e-05 4.11642523177889e-22)
(-0.00118243063429225 -3.46785023521909e-05 7.41404549562975e-22)
(-0.00125029905058612 -2.71264414100867e-05 -2.39342193911812e-23)
(-0.00122122898261748 -2.55835723162025e-05 -6.69532793829988e-22)
(-0.00123582352595804 -2.25692547962035e-05 -3.05679121652376e-22)
(-0.00122847442417803 -2.32002689612035e-05 2.81603958976229e-22)
(-0.00130692808224013 -2.47234254344816e-05 1.29297210484447e-22)
(-0.00132848996277859 -1.34186373693348e-05 0)
(-0.00133490211004659 -1.62051546402505e-05 0)
(-0.00136509958050213 -2.64395130439974e-05 1.32198903640604e-22)
(-0.00167090393830877 -9.00057121301798e-06 2.64058913894767e-17)
(-0.00132853003089587 -3.19794295378196e-05 1.9784859922929e-17)
(-0.00229601190111703 3.5386704272144e-06 0)
(-0.00141638960703743 -6.64829234351983e-05 1.42952079154738e-23)
(-0.00206323978348455 0.000317099021836701 -4.06476157622155e-22)
(-0.00129855799919962 -0.0016272657578882 0)
(0.00268444846234857 -0.0010140308136229 0)
(0.01165582666947 -0.000247521133912994 0)
(0.0192259891282578 3.7281529746445e-05 0)
(0.0274720126660891 -0.000304047478583233 1.8562147122399e-19)
(0.0339456595282675 -0.00118296375649425 1.25319178906065e-20)
(0.0369833868121733 -0.00213905768597068 0)
(0.0379784878315618 -0.003084726088195 6.8454929114644e-18)
(0.0371140865374145 -0.00403969941999823 0)
(0.0348230965739975 -0.00512817952977153 -1.44495783217206e-17)
(0.0304995506262502 -0.00648764330543905 -5.16432847790345e-15)
(0.0251115132132325 -0.00817850159848413 -5.29999647428838e-15)
(0.0181049046529578 -0.0105691169002759 3.09528490913008e-17)
(0.00892521872651123 -0.0136719638173095 -3.07328141173084e-20)
(-0.00104297897581788 -0.0176637220265666 6.39043268491997e-23)
(-0.0130800595224648 -0.0229200764234574 3.17842430714206e-22)
(-0.027567712566768 -0.02968756454615 -6.41570068412685e-17)
(-0.0444467595385144 -0.0379735744407553 6.38314902168964e-17)
(-0.062265866672045 -0.0480213814859533 6.25778943595356e-17)
(-0.0855791584719525 -0.0611626547602819 -1.42279863386238e-20)
(-0.111092630297688 -0.0757978556046356 1.37663895161963e-21)
(-0.142063434524971 -0.0950439088830059 1.36841625442153e-20)
(-0.179649368532506 -0.116985888191661 -9.14029870203845e-17)
(-0.23053737753008 -0.146153308509492 7.25638012881221e-17)
(-0.292419749868321 -0.172699928386223 4.42471090159543e-17)
(-0.358925995162451 -0.201385699287764 8.63433570515009e-18)
(-0.443178987978424 -0.224555729283074 -2.07870040526447e-21)
(-0.526351601243083 -0.235393002497295 0)
(-0.607737895761854 -0.233786169042147 0)
(-0.68779937319491 -0.216914217371197 2.77564649890737e-16)
(-0.753196207863541 -0.179041995367738 -8.23875670338419e-20)
(-0.793000539615989 -0.122931749980555 2.7216684809876e-19)
(-0.796418603264107 -0.0490401854863916 1.25592380529638e-15)
(-0.742227859370386 0.0305134652491575 0)
(-0.651257552177476 0.0950813241964464 4.40600104664586e-19)
(-0.518034744318409 0.148943490085837 -4.79961483919245e-16)
(-0.358177132391336 0.166967512031535 0)
(-0.218148047767419 0.162477912476224 0)
(-0.107147359711029 0.141922190813535 -2.78492570611718e-16)
(-0.0282326632460207 0.122115191100928 5.48258806266088e-19)
(0.045939540975672 0.102928993754506 7.04977504679768e-17)
(0.108828856055309 0.0828825658716952 -2.17578300778165e-18)
(0.159418082333873 0.0639286241851262 0)
(0.202628857457373 0.0458400617303745 2.63932209889461e-16)
(0.240767530793461 0.028652439722642 -6.81115551583365e-20)
(0.268620089976337 0.0126050235302824 2.40994050745187e-16)
(0.292695616483722 -0.00190719687721411 -2.27615913588395e-16)
(0.309773545387367 -0.0152932604635406 0)
(0.318477776994709 -0.0262627416186427 0)
(0.324539787907923 -0.0360156024403645 3.46706083352652e-19)
(0.325944291973743 -0.0441845339221614 -3.36712431743988e-16)
(0.318863126476273 -0.0497630870587698 -3.07523090894446e-16)
(0.307145716672295 -0.0535050935023908 2.79757445761553e-16)
(0.292840284441234 -0.0555019834824531 2.38655671186354e-19)
(0.275338652144435 -0.0561014583322162 -2.29675898918609e-16)
(0.256261348761391 -0.0551657635280984 0)
(0.235771640971222 -0.0532758761568191 0)
(0.217550018609795 -0.0510318089515434 3.37793618879501e-16)
(0.200103458862581 -0.0484811574940607 2.20741025408809e-19)
(0.184484598488549 -0.045683020268975 -2.75413101937393e-16)
(0.169441918787688 -0.0426836026733146 0)
(0.157695488832591 -0.0402685610064177 -4.51025450173794e-16)
(0.146944762691301 -0.0376844009776322 2.04216792422268e-16)
(0.137115637435953 -0.0351218268341573 -9.36661192296301e-20)
(0.129063744818581 -0.032985338902712 0)
(0.122535317358186 -0.0310221882076961 -2.2629330715232e-16)
(0.116136727566065 -0.0288999489087067 -6.82412637115814e-17)
(0.111195943687389 -0.0272752165452621 1.01375147856165e-20)
(0.106959595801995 -0.0255725199514928 -5.48784387976339e-17)
(0.10289213559414 -0.0239512375890768 -4.9473078546275e-17)
(0.0995748953323797 -0.0224475275139161 8.18588793334126e-20)
(0.0962930504139241 -0.020983304349123 -8.04507800942284e-20)
(0.0935568319783611 -0.0196237357802587 0)
(0.0906273491113119 -0.0182373131068439 5.51691485145798e-20)
(0.087868279089285 -0.0169434953699196 -2.61475008746671e-17)
(0.0849040540209676 -0.0156795169209116 4.67900606600625e-20)
(0.0817991237141646 -0.0144972188566211 -1.86603644161553e-17)
(0.0784104655668359 -0.0133960064533337 5.98818556046468e-20)
(0.0746677681283884 -0.0124236529658372 -6.14201590201858e-18)
(0.070344261779679 -0.0115685825184985 5.30146672626891e-21)
(0.0655769107683063 -0.0109102478419025 1.54499941905761e-20)
(0.0601262161268127 -0.0104464819082765 -2.08897940755658e-18)
(0.053982130419841 -0.0102938769110782 0)
(0.0467332729638938 -0.0103732271598039 -5.90300098775518e-21)
(0.0389723530239839 -0.0108946672072093 -1.88908704931856e-19)
(0.0284962257898665 -0.0116895461166863 -1.07059737424369e-20)
(0.0160606950845713 -0.0112927336724097 6.38183847071857e-21)
(0.0103172939897273 -0.00935705046130147 -1.99364780843101e-21)
(0.00729398759953681 -0.00807450301627457 5.43686591557133e-22)
(0.00342729175305396 -0.00724257001310736 8.82594638248646e-21)
(0.00102659640083671 -0.00640346893935543 -9.09878424729682e-21)
(-0.00092039680139239 -0.00571735968772499 0)
(-0.00241475506454909 -0.00510682996239238 0)
(-0.00351311855436246 -0.00454160955486173 8.68235095788145e-21)
(-0.00425655380910883 -0.00404823010413979 -3.10624237291109e-22)
(-0.00478884330642465 -0.00359519313746056 -3.48516181094097e-22)
(-0.00505552766430196 -0.00320330830327542 -1.56734796247507e-20)
(-0.00524859186920596 -0.00285340375823604 6.16315266749529e-22)
(-0.00527112332886013 -0.00252388520164752 7.26852745591041e-21)
(-0.00516575144859689 -0.00225117806613729 -5.66972396090785e-21)
(-0.00506873944282735 -0.00200261414012122 6.50593748452421e-21)
(-0.00485412945836335 -0.00177468324239536 -2.14603518311144e-21)
(-0.00462200971972665 -0.00159399801836815 3.59067456574014e-21)
(-0.00442341795124362 -0.00141966129131246 0)
(-0.00416209125939301 -0.00126193153943155 -1.24024877065626e-21)
(-0.00389550550241992 -0.00112774260163766 0)
(-0.00364255018180548 -0.00101386908560246 -2.13254225474471e-21)
(-0.00341531269427043 -0.000909297715848463 2.64903551871378e-21)
(-0.00317328032247631 -0.000817020131576998 0)
(-0.00298402949123659 -0.000732973896196891 1.32417644505211e-21)
(-0.00273833627458005 -0.000648211689706028 -1.00033707793223e-22)
(-0.00253686326022348 -0.000602004707594343 -3.27286411787233e-21)
(-0.00239657519977251 -0.000534789685783227 2.36224299392233e-21)
(-0.00221248469138716 -0.000486241642097173 -1.42170760134393e-21)
(-0.00206990557376195 -0.000433605034003184 1.42169896642283e-21)
(-0.00189395296760057 -0.00040312964715439 0)
(-0.00183800592144562 -0.000375646861874322 1.20974494452607e-21)
(-0.00173259368373089 -0.000321357495302753 -1.18085676449966e-21)
(-0.00158534195571014 -0.000301966805366775 2.23496882629796e-21)
(-0.00152871165931353 -0.000278078018415048 -1.08852290655383e-21)
(-0.00146387848439208 -0.000254000241518866 0)
(-0.00138496256879756 -0.00023468490801654 3.75956544707767e-25)
(-0.00137885206994771 -0.000214327903869386 4.39115460174344e-22)
(-0.0012656631673622 -0.000187422966699508 -4.39112239247761e-22)
(-0.00127715868845462 -0.000200176266636251 3.92667713522603e-22)
(-0.00127403503106681 -0.000152560300486724 -3.92665629568615e-22)
(-0.00118253862461648 -0.000166798323485587 0)
(-0.00124980120806601 -0.000147625506028113 -3.24967799806513e-22)
(-0.00122091854370761 -0.000137587073929306 6.3875895475158e-22)
(-0.00123567265764541 -0.000127373840019359 0)
(-0.00122854945547217 -0.000122967034642008 0)
(-0.00130638566025577 -0.000121431117879718 -1.16994839985693e-22)
(-0.00132796943140252 -9.45758587491271e-05 1.16898475881042e-22)
(-0.00133557487006752 -9.35662900211889e-05 0)
(-0.00136457470330958 -0.00011085584630579 -1.7205489513092e-22)
(-0.00167122325392003 -6.5268882301998e-05 -2.52082060915039e-17)
(-0.00132727520173177 -0.000107121797766848 -1.88654941991136e-17)
(-0.00229864731076522 -1.34775309385294e-05 -9.18953946522665e-23)
(-0.0013960885270034 -0.000198982862901232 5.5092200454618e-24)
(-0.0020795606339724 0.000813534125515419 3.87844890487121e-22)
(-0.001266806991849 -0.0034291807931837 0)
(0.00275342924914393 -0.00246765231819316 0)
(0.011705043904997 -0.00145401587868924 5.7739752817231e-21)
(0.0192169249767321 -0.00114112030901016 -5.77397542467988e-21)
(0.0274006628149578 -0.00177130069490052 0)
(0.0338466849975463 -0.00337325090816271 -1.54788820566707e-18)
(0.0368994690841253 -0.00515141148578257 3.17723512455072e-18)
(0.037931932483803 -0.00696606275072609 -1.5613941867262e-20)
(0.0371237134224382 -0.00883705977654949 1.29426984318389e-20)
(0.0349112550968783 -0.0109129803038116 0)
(0.0307047965663821 -0.01337355455913 4.93368474833555e-15)
(0.0254620332039854 -0.0161923139138974 5.06511956301222e-15)
(0.018665722303355 -0.0199440425357883 -5.90375073992252e-17)
(0.0097603219195979 -0.0244293860359484 -2.99247167029454e-17)
(0.000140660586202358 -0.0299620018319107 2.95490004935404e-20)
(-0.0114546610362633 -0.0369096849545733 -6.11472417362797e-17)
(-0.0253878038014019 -0.0454501878334313 6.13014836814953e-17)
(-0.0416234240386989 -0.0554809713450252 0)
(-0.0587287826793946 -0.0673743079898493 -5.9729848914077e-17)
(-0.0811526782751101 -0.0824695226344096 2.90177358695198e-20)
(-0.105870467979708 -0.0986063337069269 -1.08706544979572e-16)
(-0.135858005256439 -0.119727838747131 0)
(-0.172749775213825 -0.142687348355287 8.96127370571182e-19)
(-0.222780833824419 -0.172527790926228 -6.92125113166991e-17)
(-0.285010127209658 -0.196412772243188 -4.22026069578312e-17)
(-0.352245179331488 -0.221747719410216 -2.0697816174186e-21)
(-0.438807176664783 -0.237097543464177 4.23590511936644e-17)
(-0.52581316261082 -0.236612217900201 1.03670861238443e-16)
(-0.612239607894947 -0.220680482051576 -1.78513001318814e-16)
(-0.698426646523134 -0.185420275443277 9.70585923326732e-20)
(-0.77067533730973 -0.125043294476609 -1.57778821170465e-19)
(-0.816942429808519 -0.0440581720239974 0)
(-0.825867657018525 0.0566850000052848 -5.99366195788914e-16)
(-0.774721661795923 0.159589482307729 7.1514111231849e-16)
(-0.683301176543906 0.240130837312054 0)
(-0.547269353120354 0.304041315911154 4.57439613905195e-16)
(-0.381735769325615 0.316130225396965 4.89164358126431e-19)
(-0.235414916595824 0.298505751674368 -1.00333977144292e-18)
(-0.118475522330667 0.258912645092006 2.66223638913088e-16)
(-0.034897043989386 0.223061694583115 1.33683108719129e-16)
(0.0426715501231894 0.189412002826218 0)
(0.107940346920177 0.155987565879206 1.9138683165902e-21)
(0.160167594631464 0.125894402872821 0)
(0.204441255675032 0.0982611723192538 -1.26381844543772e-16)
(0.243228393569297 0.0730653546287807 -2.4125627407062e-16)
(0.271407118582975 0.0499115489274528 0)
(0.295668642629925 0.0299522283408473 2.17598713531023e-16)
(0.312714726703475 0.0113926615618098 -4.07310768344802e-19)
(0.321395549511882 -0.00338077347275157 -3.58766919746843e-19)
(0.327347228217814 -0.0164360203916324 6.82861381187165e-19)
(0.328677978846436 -0.0271393602444028 3.2122804439542e-16)
(0.321476098996867 -0.0349930604990898 -2.96709576426697e-19)
(0.309688706416008 -0.0404049202522645 2.66836291312404e-16)
(0.295311710163956 -0.0437478677949372 4.73326205911807e-19)
(0.277737849677715 -0.0454945293102018 -1.6304940422975e-20)
(0.258548915860999 -0.0456409183304426 -2.00868699882123e-19)
(0.237888304822241 -0.0448890623442588 0)
(0.219512610351955 -0.0435464492234618 -3.2228020011211e-16)
(0.2018764176426 -0.0419369947957128 -2.91212052948765e-16)
(0.186059416984332 -0.0400378935175766 2.63136575383976e-16)
(0.170826500672983 -0.0377995860431412 0)
(0.158918303527241 -0.035991725471991 2.15192148851219e-16)
(0.147992643362396 -0.0340902707852239 -1.94646917456208e-16)
(0.138011946664276 -0.0320634516158354 -1.65782557024396e-19)
(0.129833080267486 -0.0303385381042858 1.61910226131428e-19)
(0.123170903233043 -0.028873633541831 -6.37740028946258e-20)
(0.116650724066946 -0.0271756783894383 6.48644247416437e-17)
(0.111613241889265 -0.0258735972000213 1.19424610792434e-19)
(0.107265105990393 -0.0246193224699385 0)
(0.103103611200565 -0.0233751427288653 8.79377041264372e-20)