/*--------------------------------*- C++ -*----------------------------------*\
| =========                 |                                                 |
| \\      /  F ield         | OpenFOAM: The Open Source CFD Toolbox           |
|  \\    /   O peration     | Version:  v2006                                 |
|   \\  /    A nd           | Website:  www.openfoam.com                      |
|    \\/     M anipulation  |                                                 |
\*---------------------------------------------------------------------------*/
FoamFile
{
    version     2.0;
    format      ascii;
    class       volVectorField;
    location    "7000";
    object      grad(k);
}
// * * * * * * * * * * * * * * * * * * * * * * * * * * * * * * * * * * * * * //

dimensions      [0 1 -2 0 0 0 0];


internalField   nonuniform List<vector> 
14000
(
(-4.06840294674418e-05 0.0235601275471254 0)
(-8.43575894878792e-05 0.0228126722888899 0)
(-0.000118779032395247 0.0215912244860425 0)
(-0.000132476493558601 0.0201959101480794 0)
(-0.00014765147732933 0.0186885170930847 0)
(-0.000177877507820084 0.0173966440932675 0)
(-0.000233748089808182 0.0164774786021484 3.06921757845241e-21)
(-0.000324679048367922 0.015893663874132 0)
(-0.000452779983048635 0.0156109624910918 0)
(-0.000619975510765707 0.0155840864065455 -1.13614842722185e-31)
(-0.000840039479066762 0.0158543971783757 0)
(-0.00111302388651982 0.0163554345263509 2.29308962145079e-31)
(-0.00147039342023959 0.0172012434525914 -1.53940192547173e-23)
(-0.0019185973757035 0.0183257819744392 3.32288554622714e-23)
(-0.00247550177841595 0.0196880488160836 -1.7894121689937e-23)
(-0.00317302150108759 0.0213856040998913 -6.4477272912021e-20)
(-0.00405531923772303 0.0235033116029332 -7.1209985294905e-20)
(-0.00515995452319385 0.0260542661692762 -4.94554544000043e-31)
(-0.00649190807384104 0.028976118775455 -5.05508079776229e-31)
(-0.008247609160626 0.0327888648572103 -2.68819496389144e-23)
(-0.0103377581801729 0.0371401666826204 2.76509475683965e-23)
(-0.0130743390617757 0.0426985970716406 2.03128940277503e-23)
(-0.0163928659611263 0.0493729392139768 -2.10348780919219e-23)
(-0.0210170633344056 0.0586271347417627 -7.95270178621811e-24)
(-0.0265707256261439 0.0698291818933196 8.27982909435204e-24)
(-0.0332394321683058 0.0832709259860165 1.28706660976825e-30)
(-0.0409974857065861 0.0996379763850821 0)
(-0.0489359659859283 0.117522500071799 -1.40089779521707e-30)
(-0.0563430580416763 0.136296364514574 8.81801374841499e-19)
(-0.0626939442023254 0.155704744591692 1.00279643405284e-18)
(-0.0668194372654806 0.173886475449477 4.20466773380653e-22)
(-0.067912872224141 0.189037168195323 -1.19829795724956e-18)
(-0.0652040760114509 0.198671848669462 0)
(-0.0582106095116429 0.199124410810048 0)
(-0.0487587539542159 0.191874488641493 0)
(-0.037578653102169 0.175678983092259 0)
(-0.0268019168190149 0.153614015254345 2.97973535735371e-22)
(-0.0178643127803825 0.131191947594326 -5.67229315110748e-23)
(-0.0112888274004636 0.112045521233715 -2.46690190527406e-22)
(-0.00659231051174805 0.0970111346984268 0)
(-0.00317005781987851 0.0841546294393401 3.14700069108307e-20)
(-0.000689948713074393 0.0735072729958662 8.28829217239607e-22)
(0.00111508340124525 0.0648958205565072 -1.05582855922571e-22)
(0.00242885317509487 0.0577984384096297 4.30897627746064e-20)
(0.00339271997976259 0.0517616566613009 -7.729139903219e-20)
(0.00410154058619274 0.0468688304162782 3.77447866070921e-23)
(0.00460481350622627 0.0424435326647676 -6.47349939226486e-23)
(0.0049509630963936 0.0387025603381109 -1.16292264843843e-19)
(0.00516639656294371 0.0352467645826955 0)
(0.00523722097234453 0.0319092347237158 0)
(0.00520106707301335 0.0287429636547406 -8.70918384381056e-20)
(0.00510161528429595 0.0260091555587903 -7.90095835397054e-20)
(0.00493469245543585 0.0233107995930727 -2.99712587751217e-24)
(0.00484948455164107 0.0214785812373322 6.56153274275348e-20)
(0.00471529237350122 0.0198542262746447 6.08125295791244e-20)
(0.00457824920680449 0.0185768704155065 -5.70260017746371e-20)
(0.00440348231368718 0.0173014487772336 1.077840327412e-23)
(0.00424369163076537 0.0162950509572586 -1.00354421090227e-19)
(0.00407821568438675 0.0154127406091221 1.39216026213056e-23)
(0.00392604824270809 0.0147184012738957 1.3248907282237e-30)
(0.00375253658092452 0.0139726944062689 -8.62250363725585e-20)
(0.0036171820620063 0.0134759970627067 1.62646542479118e-23)
(0.00348871943521568 0.0131101189767386 -8.08606746136924e-20)
(0.00335779657961926 0.0127401827625918 -3.1588654415919e-23)
(0.00324779908523957 0.0124989344734535 1.54971711494851e-23)
(0.00315602434583681 0.0124303002784537 7.64301894390168e-20)
(0.00306027809407251 0.0123691102284015 -3.79475687153825e-20)
(0.00297975795645529 0.0123993881297287 3.79937391712233e-20)
(0.00291606538540854 0.0126261580962716 -3.86236285728261e-20)
(0.00284093002688131 0.0128158629323102 3.90998712502145e-20)
(0.00277786465581058 0.0131507285900868 2.5858395771426e-23)
(0.00270486266944699 0.0135076538150677 4.10609365497612e-20)
(0.00263442013104127 0.014001523787172 2.21061815563274e-23)
(0.0025528619799862 0.0145499705767989 -2.1774114263195e-23)
(0.00246323356365838 0.0151627336987462 1.87042811530509e-23)
(0.00236277989072931 0.0158760096271615 -1.84676243980004e-23)
(0.00224664436447043 0.0166336563550123 1.50396814888386e-23)
(0.00211498480998932 0.0175174905631074 -1.67868607228343e-24)
(0.00196248725647546 0.0184726593250103 -1.30895535394256e-23)
(0.0017897344103941 0.0195456395833409 -2.92384736504008e-20)
(0.00159667352773269 0.0206455930669761 -1.81495012677385e-23)
(0.00140079465400661 0.0219572090951093 8.43226058722264e-24)
(0.00119627626969006 0.0236984078352643 -1.30298644878328e-23)
(0.000939029669904938 0.0256903526045911 -1.91589251941144e-20)
(0.000646358573118767 0.0278980070582631 1.78414446977747e-23)
(0.00031163512812543 0.030888931746752 2.87729910013688e-21)
(0.000119520833599541 0.0333235637630702 4.43095638148511e-23)
(0.000105117859553072 0.0342134150253578 -1.46658644399802e-22)
(9.27189586805847e-05 0.0347226717617219 -7.49413172611527e-24)
(8.88964743760288e-05 0.035066902486544 6.00511986966821e-23)
(8.14123453787142e-05 0.0353102953278795 -7.37099160724202e-23)
(7.57269930318463e-05 0.0354666963209563 7.37098270877067e-23)
(6.80225614647519e-05 0.0355687561246836 -4.25981112650339e-23)
(6.19830043060498e-05 0.0355966642365324 4.2597971476177e-23)
(5.49939597650499e-05 0.0355774770009085 0)
(4.93673112504329e-05 0.0355078252275447 4.92036551818891e-23)
(4.36432185919252e-05 0.0354016810973989 1.72243900832313e-24)
(3.80943320724952e-05 0.0352743269533905 1.51783560219996e-24)
(3.37995474697923e-05 0.0351146629702895 1.31566218973459e-24)
(2.96002523126158e-05 0.0349383077245154 -1.08669147431831e-22)
(2.58401003092598e-05 0.0347534063544748 5.49097977650073e-23)
(2.30078648107192e-05 0.0345502680537745 0)
(1.99263381781598e-05 0.034347380476527 -1.10309459436813e-34)
(1.74408130621816e-05 0.0341426781408369 0)
(1.52503971532826e-05 0.0339326791432084 0)
(1.35000964945804e-05 0.0337213264645563 2.45342751430146e-23)
(1.19124285194526e-05 0.0335130911447733 2.43827605656543e-23)
(1.04225882401154e-05 0.0333094431903997 0)
(9.28801048166438e-06 0.0331074131729407 0)
(7.90690264056758e-06 0.0329142534909231 1.10306834331485e-34)
(7.60806802287126e-06 0.0327137481715327 -4.76019943510067e-23)
(6.46056640886702e-06 0.032528390541581 2.20611907014644e-34)
(6.11987274259169e-06 0.0323460113108095 2.20610545835302e-34)
(5.29696977386588e-06 0.0321692162310886 2.20609609055741e-34)
(5.02882546144691e-06 0.0319950775857141 -6.12491868882799e-23)
(4.80838836612935e-06 0.0318252879375725 1.07558017272716e-22)
(3.97618923525111e-06 0.0316734795139628 3.07144561394779e-23)
(3.98094747744194e-06 0.0315154171804934 3.07695111854142e-23)
(3.60262209752909e-06 0.0313629357370443 -3.07191869770312e-23)
(3.60885758460235e-06 0.0312190265577473 2.24857404638359e-26)
(3.30108491331676e-06 0.0310808425954981 1.64850828995466e-26)
(3.32484140969615e-06 0.0309455354388309 -9.24419763958294e-23)
(2.75988331564659e-06 0.0308215471902157 1.67906426902252e-23)
(3.49774670605452e-06 0.0306867257750885 4.46520913435285e-23)
(2.47832632507698e-06 0.0305781935742284 -4.44941918780982e-23)
(3.24448572702628e-06 0.0304575309734344 3.08489062450303e-23)
(2.63261285534881e-06 0.030347166058071 -7.50067527696211e-23)
(2.88095773956956e-06 0.0302451539620295 2.2059245817801e-34)
(2.66257784287945e-06 0.0301437175926373 3.08684387970493e-23)
(2.60250434614826e-06 0.0300477119358263 1.28539683278258e-23)
(2.85451099758628e-06 0.0299538645553686 -5.90272919654211e-23)
(2.40358123393264e-06 0.029875090356039 1.54415124787607e-23)
(2.81132405449589e-06 0.0297887344523626 0)
(2.83243350707008e-06 0.0297094687026628 -1.54557913051419e-23)
(3.55628614105478e-06 0.0296373126198639 1.54557453728889e-23)
(2.65008265203626e-06 0.0295939544297581 7.73926351115982e-24)
(5.77687075014995e-06 0.029496376004708 -1.54986989514382e-23)
(3.24140894279263e-06 0.0295502565170416 7.75944914863861e-24)
(3.31647173531907e-06 0.0293714394066097 -1.94254780286504e-23)
(2.19975989899726e-05 0.0294710753364895 -1.94355132529555e-24)
(-3.75954177916914e-05 0.0743098950309209 -2.46053647629397e-24)
(-5.78045881010412e-05 0.0734598859604737 2.46053682143001e-24)
(-6.98415167483907e-05 0.0726364728977184 0)
(-7.67639631702403e-05 0.0716063341241398 0)
(-0.000131606640650898 0.070518467292356 -1.02856752377403e-21)
(-0.000331065793491134 0.0697144829682938 0)
(-0.000687243848175475 0.0692100381514529 -2.94477925572702e-21)
(-0.00120557766771844 0.0690266617625828 1.62680979982504e-23)
(-0.00188711439926796 0.0691172353228109 -1.61202926701162e-23)
(-0.00273464815413799 0.0694346818519246 6.28794462048386e-20)
(-0.0037682522963472 0.0700381729320773 1.65475476105876e-23)
(-0.00496282446118297 0.0709301275557617 -5.06106723998648e-23)
(-0.00640465060371784 0.0722724208731845 -9.30085372895594e-25)
(-0.00800325145361548 0.0735031555737545 -9.87192201004631e-25)
(-0.00975342546602076 0.0745445624036811 -1.04289593678945e-24)
(-0.0116460367839299 0.075390732652545 6.15803973783578e-20)
(-0.0136403108639587 0.0759605687390768 6.79169412410921e-20)
(-0.0156073933077713 0.0759454143709237 -3.06817427055978e-19)
(-0.0175054471516024 0.0754244944482001 0)
(-0.0193707316432158 0.0745385299828966 0)
(-0.0208458789463269 0.0726967153247882 -2.53930856367827e-23)
(-0.0221569172541395 0.0704658823800746 2.62120960444709e-23)
(-0.0228973256659805 0.0672685589980468 0)
(-0.0232461201948146 0.0634509604531873 8.04450846890979e-24)
(-0.0222131819520161 0.0574483434732342 9.32761715790739e-24)
(-0.0203189607884561 0.0504230904865974 -8.37015100003003e-19)
(-0.016932706073468 0.0411376443378466 8.69625457645065e-23)
(-0.0125277336875947 0.0304784493298388 -9.06919650120163e-23)
(-0.00771998177033079 0.0193420565883082 -8.40950554288096e-19)
(-0.00293827864117816 0.00810936074694589 5.20339168717958e-20)
(0.00110037319308008 -0.00205719122129712 0)
(0.00354770356473509 -0.00923068979115758 1.14245884224327e-18)
(0.0039264235174107 -0.011658177572575 1.11495309595081e-18)
(0.00195991858168351 -0.00672031126354403 0)
(-0.00114141789769106 0.0043775800551897 0)
(-0.00457058299842605 0.0217172480554824 0)
(-0.00730871935702553 0.0438060329437095 0)
(-0.00843474246658963 0.0666060971364913 0)
(-0.00805233444990421 0.0885129395986702 0)
(-0.00634676639036489 0.108371316919286 0)
(-0.00363318010101461 0.127260071720811 4.74299309626685e-20)
(-0.000118952761929493 0.145075065679571 -8.15907361203212e-22)
(0.00404086411185946 0.161290005293954 0)
(0.00865060362149803 0.175555902597269 1.30878138696805e-19)
(0.0135206788983561 0.187570197388815 -2.80161632782443e-19)
(0.0183501157554942 0.196774094901478 3.61510194309509e-19)
(0.0229682104924805 0.202322646480821 -8.94951147247245e-23)
(0.0270442284629976 0.204813897046755 1.10987257379921e-19)
(0.0303969030526799 0.202865391663407 -8.43384313795258e-23)
(0.0327959485401525 0.196866004302034 8.27531998003827e-23)
(0.0341977526217447 0.187446565626988 8.30923399291673e-20)
(0.034613888073326 0.176083714094147 -5.35053701184055e-19)
(0.03407030425483 0.162016917372251 5.61297932950871e-19)
(0.0327006146768179 0.147007317426298 -6.24801284107504e-20)
(0.0308395056494453 0.132074900483887 -5.2030403684845e-19)
(0.0289078223759743 0.119343057662975 5.42866982789474e-20)
(0.0268215179289151 0.107225699867209 -8.70410410024317e-23)
(0.0249009822968347 0.0972090613434557 9.58169591009735e-20)
(0.0231632718698669 0.0888534317448321 -6.38147363440665e-19)
(0.0217196669345379 0.0825097617986022 -5.95483042472341e-19)
(0.0203130511873298 0.0765774323814467 8.22646945768944e-20)
(0.0192093114596196 0.0723404830970988 -5.25654944249112e-19)
(0.0183654375878975 0.0696305539274071 7.71471960337012e-20)
(0.0175784555189971 0.0672375025287382 5.9196899542848e-23)
(0.0169529755116979 0.0656965145821449 -5.78136935258045e-23)
(0.0165326256678599 0.0654521402285609 -5.48357753972657e-19)
(0.0161603305110165 0.0655870850999016 3.62336973284243e-20)
(0.01586950282836 0.0662128692577938 -3.62634784919709e-20)
(0.0157698312161906 0.0683339240680135 -2.09156804582586e-19)
(0.0156131469703035 0.070388798578996 -2.89441144442395e-19)
(0.0155430224404227 0.0734119039885444 0)
(0.0154273050060263 0.0767240881116425 -3.90401538166459e-20)
(0.0153229148098541 0.0809329528948598 -2.79098124636231e-22)
(0.0151522865053556 0.0856503797674107 2.94236475392902e-22)
(0.0149011291214754 0.0907801571831055 -1.50068668945798e-22)
(0.0145582019547031 0.0965989724299169 1.70977379706642e-22)
(0.0140753371351234 0.102676222178958 -3.56769737556454e-19)
(0.0134486112841592 0.109471558892582 1.93756111467918e-22)
(0.0126407512040853 0.116614616683849 -1.92025557215175e-22)
(0.0116466827499588 0.12431615356748 2.79076244518633e-20)
(0.0104603856598276 0.132006160422175 0)
(0.00904833263004277 0.14030664814066 0)
(0.00742060667257794 0.14847644762074 0)
(0.0055971724772168 0.157050687457316 1.53648103426722e-19)
(0.00360637777449849 0.165801986890281 7.20166984596866e-20)
(0.00136898956034336 0.176582715493448 -3.05498536492951e-21)
(9.66555992741704e-05 0.183078203808022 3.12709355723952e-22)
(8.62380934092102e-06 0.182716158511494 3.60917411648601e-22)
(-3.79010174486966e-05 0.180592617453691 -7.77553766246092e-23)
(-4.87926241892242e-05 0.177521809857214 1.91893140193547e-23)
(-5.56572863384623e-05 0.174196729145659 -3.2885282170089e-22)
(-5.53472503164851e-05 0.170703365209464 6.5315890134743e-22)
(-6.28023372115456e-05 0.167197055638445 -4.74101117724032e-24)
(-6.06293357855851e-05 0.163649420067221 -3.19564940721224e-22)
(-6.31676007130457e-05 0.160176805602446 2.92125728996037e-22)
(-6.00765145567525e-05 0.15676385506294 -3.79138187135253e-22)
(-5.92442081508539e-05 0.153477464928058 0)
(-5.98302494572467e-05 0.150334779642495 0)
(-5.51060322275937e-05 0.147309606468452 -1.45446653992485e-22)
(-5.30785644872192e-05 0.144446126285823 -6.24994501221365e-23)
(-5.10202714497083e-05 0.141731654521184 2.84432493380124e-22)
(-4.59029382446378e-05 0.139147565327636 -1.27243393151226e-22)
(-4.49251315534253e-05 0.136726991622944 -1.39152382909298e-22)
(-4.26843916899617e-05 0.134437332403621 0)
(-3.95995580378981e-05 0.132272320584888 1.19800267350089e-22)
(-3.65007293185736e-05 0.130228372608374 -2.34096436536281e-23)
(-3.44157918542038e-05 0.128304395644822 -2.32650741610618e-23)
(-3.25573251823718e-05 0.126489401874508 0)
(-3.05156586685713e-05 0.124775984715504 1.27500797335149e-22)
(-2.94879328368779e-05 0.123160062492992 -1.27500368706624e-22)
(-2.46625385557004e-05 0.121611981490571 4.54199570739305e-23)
(-2.51306877063274e-05 0.12017304499716 -1.23601867637603e-22)
(-2.24641714784177e-05 0.118794910308256 -2.16609411141788e-22)
(-2.15285798360977e-05 0.117496508407883 1.22425060250183e-22)
(-1.87605654192804e-05 0.116252965354463 -1.20225915135856e-22)
(-1.74008581537029e-05 0.115080839256252 7.60392015987703e-23)
(-1.87998150174538e-05 0.113980961257367 -1.18250503373207e-22)
(-1.52293759491517e-05 0.112907986242921 2.74971042398285e-23)
(-1.43918063511994e-05 0.111899466395844 -1.1731171547374e-22)
(-1.33318978337493e-05 0.110937391443481 0)
(-1.24442555702176e-05 0.110019861878993 0)
(-1.14343097218756e-05 0.109146122288617 -2.01799561030277e-22)
(-1.14500373352142e-05 0.108312534983197 4.27925037020412e-23)
(-7.4992392841631e-06 0.107498543962994 -4.26052752698779e-23)
(-1.12340651805942e-05 0.106758214658204 -1.3476463466686e-23)
(-6.38741164418599e-06 0.106004901023795 5.5930780264418e-23)
(-8.03065672298777e-06 0.105318074303966 9.74268454055969e-23)
(-7.16261054066532e-06 0.10464737621449 -2.97584548730645e-25)
(-6.71202333641996e-06 0.10400672742831 -2.48202216693484e-22)
(-6.14822687221515e-06 0.103391257761434 -4.17180454820574e-23)
(-5.47546650592813e-06 0.10280342138 4.1587769801513e-23)
(-7.07127746887808e-06 0.102251747867132 9.51403502841825e-23)
(-4.43080164423862e-06 0.10169991771966 0)
(-3.39620754033079e-06 0.101181001404004 0)
(-4.96654420666653e-06 0.100705119915177 1.07165747059846e-22)
(-3.22120723253884e-06 0.100230010002757 3.17533246648333e-17)
(-1.63337968128849e-06 0.0997861849844412 3.16258323644538e-17)
(-3.49253054877224e-06 0.0994380986259118 0)
(-2.7764510200816e-06 0.0989244925097064 2.03895272412656e-23)
(5.40760908567492e-05 0.0986523667969886 -1.47585589768257e-21)
(-0.000133866143405549 0.190761683529592 0)
(-0.000215934006313167 0.189223988492361 0)
(-0.000265461848281818 0.187361078531612 0)
(-0.000300230388986771 0.185305884195768 0)
(-0.000440779126754713 0.183326675357786 8.74306665246292e-22)
(-0.000941204224957393 0.182093285030881 1.07132734508877e-22)
(-0.00185073311941116 0.181720752372371 0)
(-0.0031953324763406 0.182110635766296 9.77904866034173e-20)
(-0.00498486905853927 0.183083000835683 0)
(-0.00722211618597641 0.184511694592679 -5.99817307745553e-20)
(-0.00994398838135697 0.186367421037843 -6.95971778438064e-17)
(-0.0130631958174969 0.188527288102779 -7.08799254535437e-17)
(-0.0168094895278547 0.191418207150075 4.13224132360392e-19)
(-0.0210214276115572 0.194462840769973 -2.26108919000965e-22)
(-0.0256928153505643 0.197491512925317 -3.3718589052964e-24)
(-0.0308438483077477 0.200574046548438 -3.09725458539476e-24)
(-0.0364671312827632 0.203739890420569 -9.00947566443764e-19)
(-0.0423833721955739 0.206661139682271 2.92475366775043e-19)
(-0.0485433606898123 0.209433705656777 9.42039501176082e-19)
(-0.0552200571691289 0.212588009012985 -1.31608680380722e-22)
(-0.0617739610556559 0.215362090643752 3.81440502827163e-25)
(-0.0688575674301606 0.218769703346955 1.39328579948828e-22)
(-0.0758208231598725 0.222320407758261 -2.08913082398015e-18)
(-0.0836265914273576 0.227454448450507 2.17000025304314e-18)
(-0.0902141197133966 0.231961729618064 2.24282785032734e-18)
(-0.0964127892180974 0.237121148980502 7.9810048531261e-19)
(-0.101056221082901 0.242092595092564 1.68272453559974e-22)
(-0.103604466909541 0.246555086064029 0)
(-0.104249384863938 0.251081590213166 0)
(-0.103085546649008 0.256067034035741 -9.62024663048635e-19)
(-0.099944683263737 0.261492165958092 3.81192108707288e-22)
(-0.0952161642725176 0.268106475551858 -7.79163325591053e-22)
(-0.0889494622912103 0.276390871890222 -3.85806066589409e-18)
(-0.0816145087341447 0.287469402836757 0)
(-0.0736969204819733 0.302101238482699 -8.38585550761031e-22)
(-0.0645314623662116 0.31964192678341 1.52212974103999e-18)
(-0.0550894768126683 0.341700616469219 0)
(-0.0451816229095982 0.367889529561437 0)
(-0.0351925904527018 0.39876818263091 8.76482043621911e-19)
(-0.0244077807657193 0.432247392633602 -9.38311389384144e-22)
(-0.0125308931275489 0.467087818257278 -7.37851282866469e-20)
(0.000298621350288508 0.502786533675593 8.24467385365602e-21)
(0.0140790764149434 0.537697476042537 0)
(0.0285735456921227 0.569900784873748 -7.53612353414759e-19)
(0.0434481664100693 0.597857649584212 -8.93367310841205e-19)
(0.0579961394781611 0.619970359821642 -3.4485726508373e-19)
(0.0719070948917542 0.633448730085964 1.29763225364073e-18)
(0.0842098693944698 0.639331695629229 0)
(0.0945813610979209 0.634166488354223 0)
(0.102342872976041 0.618263843187738 -1.12966037150308e-21)
(0.10740139369785 0.593186220529601 2.41869238567884e-18)
(0.109523905799932 0.562061201936774 5.83419842841657e-19)
(0.108920787586629 0.523078359310547 -5.35598798651775e-19)
(0.105950566524614 0.481314403978236 -8.25223403930258e-22)
(0.101364995411327 0.438667965074638 4.41975524134629e-19)
(0.0960272657053009 0.400541318479909 0)
(0.0900399698891696 0.363613938422386 0)
(0.0842404533140438 0.332006332709745 -2.7057751088302e-18)
(0.0788149227430844 0.304990398661993 -1.87926691844011e-18)
(0.0740681252000002 0.283712518925841 5.68063072237933e-19)
(0.0694443746283713 0.263840774185546 0)
(0.0656850383469379 0.249007181447583 2.53954238074397e-18)
(0.0625958878957812 0.238731637071499 -1.95614538284687e-18)
(0.0597191408916328 0.22966684466693 4.09915731330489e-22)
(0.0573335375758644 0.22313307599655 0)
(0.0554970327535661 0.220431428382691 1.35810068926215e-18)
(0.0537898161838567 0.218889236201435 8.99471496281224e-19)
(0.0523556056539424 0.218707648539396 3.05294276752882e-23)
(0.0513330513340808 0.222442353180127 2.32962983913739e-19)
(0.0501705247713847 0.225985619243225 2.41477290746901e-19)
(0.0491760686641439 0.231780154975562 -8.97501230775173e-22)
(0.048042519758438 0.238125566125923 8.82062822498484e-22)
(0.0468716045048138 0.246348078965942 0)
(0.0454763355538355 0.255462555605117 -1.03769448991728e-21)
(0.0438766339079595 0.265212390236605 1.10649546175679e-18)
(0.0419955672003751 0.276007361177243 -1.08245186097216e-21)
(0.0398071962751644 0.287053590306667 3.4148242666869e-19)
(0.0372538327880232 0.299017462016843 -2.52070356832551e-21)
(0.0343244174436319 0.311345716260947 6.61408118223866e-19)
(0.0309897271102913 0.324202390995134 9.37826973063254e-23)
(0.0273461750265053 0.33679057232429 -1.45792236784182e-21)
(0.0232677854811247 0.349922860541607 7.52392583966478e-19)
(0.0188769219199265 0.363032880674715 0)
(0.0141867524091704 0.376363961389702 2.80661752096e-19)
(0.00935819199513544 0.389765431456572 -6.64628766952504e-20)
(0.00395258937948505 0.405467623694113 -4.02024842210147e-21)
(0.00055188830331101 0.415673230992056 2.66851548499134e-21)
(-5.76376885777964e-05 0.416132295422589 -2.99042018838694e-22)
(-0.000312603504390616 0.412454495831231 7.41913758212353e-23)
(-0.000400983560259099 0.406713608907795 1.97565761440245e-21)
(-0.000442665048537637 0.400086463896664 -2.04586673503511e-21)
(-0.000454315290451461 0.392963185880924 0)
(-0.000476667259141689 0.385657852315554 0)
(-0.00047210392151153 0.378238777359825 1.91335936092175e-21)
(-0.000473347449728932 0.370887565959095 -6.84722986482552e-23)
(-0.000458656970348149 0.363645609667674 -1.66460535713488e-22)
(-0.000445211174242561 0.35661497090658 -3.65585376925756e-21)
(-0.000434813073512528 0.349850909428541 1.27541527130319e-22)
(-0.000411279724571584 0.343338753224976 1.77942458614731e-21)
(-0.000392475627286486 0.337133069681383 -1.47324528198926e-21)
(-0.00037461121785218 0.331235973450876 1.71932484804656e-21)
(-0.000349131314177511 0.325624460311188 -7.12832923518285e-22)
(-0.000333111897879814 0.320333823240055 1.18308439797801e-21)
(-0.000315685517687828 0.315334275370741 0)
(-0.000296889575990053 0.31060751778576 -4.54629113144488e-22)
(-0.000278256515817755 0.306143912735269 0)
(-0.000262482508885144 0.301938361566572 -7.75470549105424e-22)
(-0.000248043348113617 0.29797379935942 1.1021679714698e-21)
(-0.000233739355657401 0.294234574143771 0)
(-0.000223261909398631 0.290709816882348 4.29181786890194e-22)
(-0.000203561593813229 0.287358546628676 -8.2365826948724e-24)
(-0.000196511811764132 0.284216887352691 -1.47178714547334e-21)
(-0.000183319114886247 0.281236644602918 9.39803236558314e-22)
(-0.000174650397313241 0.278422491542836 -7.17537796013064e-22)
(-0.00016201714486003 0.275746120590681 7.17533437956427e-22)
(-0.000152023590732634 0.273216495242039 0)
(-0.00015027960210833 0.270837121810076 6.9843307597813e-22)
(-0.00013739464566336 0.26855229121917 -6.03153995741428e-22)
(-0.00013021056310643 0.266388187427951 1.37969355392595e-21)
(-0.000123175473189583 0.264333029878562 -6.87084909330055e-22)
(-0.000116794596261588 0.262377284553039 0)
(-0.000110324952753595 0.260516908077665 -3.79134821938202e-22)
(-0.0001073218387451 0.258745682393309 3.33688300707021e-22)
(-9.3638035467581e-05 0.257035778462321 -3.33685853092178e-22)
(-9.93848288723211e-05 0.255442900980718 3.29404475981984e-22)
(-8.51945425527431e-05 0.253881279718951 -3.294027277767e-22)
(-8.5331486161837e-05 0.252414548520425 0)
(-8.07650465878705e-05 0.251007316965195 -3.23620108952243e-22)
(-7.70866192637722e-05 0.249660207000496 5.07970068440843e-22)
(-7.3173088029476e-05 0.248368886913192 0)
(-6.85426521042296e-05 0.247134253525787 0)
(-7.04256722112042e-05 0.245966534016248 2.04736577210045e-23)
(-6.25074477541757e-05 0.24482519028033 1.58506397940842e-22)
(-5.66256103838275e-05 0.243734447431024 0)
(-5.80623398345161e-05 0.242717283380749 -3.5571348683903e-22)
(-5.22336570707737e-05 0.241727969363047 -3.03157794886466e-17)
(-4.29839949192513e-05 0.240781777695445 -3.01588675104583e-17)
(-4.85423419562221e-05 0.239972333934196 -4.8780068977655e-22)
(-4.67350562892355e-05 0.239025125116779 2.23406253698373e-22)
(0.000112537407497013 0.238015689206138 1.40820847244761e-21)
(-0.000203690086703016 0.211557318417384 0)
(-0.000327691781186019 0.211370363337208 0)
(-0.00038014967740857 0.21109418505634 1.38714632549229e-22)
(-0.000395639159522793 0.211051141776332 -1.38714635983638e-22)
(-0.000506911216404562 0.21151467900673 0)
(-0.00102828358638244 0.212771957242222 -4.33215246801077e-20)
(-0.00206005291389063 0.214860178897677 8.67347106903035e-20)
(-0.00365475544552812 0.217593388450356 8.08146833557224e-20)
(-0.00582766971351446 0.220692489075844 2.70597550894074e-22)
(-0.0085828628311049 0.22396115255679 0)
(-0.0119528277550397 0.227130128258406 6.66565191046419e-17)
(-0.0157782199793981 0.230002609116334 6.77420732060958e-17)
(-0.020273087026078 0.232795899938695 -1.13761145888557e-18)
(-0.0252972229468985 0.235618576652846 -7.55041647638864e-19)
(-0.0308497080312342 0.238448061423286 5.9357194236017e-22)
(-0.0369370481078402 0.241326648821007 -1.56946805624829e-18)
(-0.0435634373523937 0.244358200197342 8.60665453761953e-19)
(-0.0505905685767174 0.247520751555025 0)
(-0.057981482274672 0.250937114183196 -8.99381450605617e-19)
(-0.0659703085568364 0.254723244171946 6.58378379476155e-22)
(-0.0740675206714453 0.258955062870995 -3.49192691376285e-18)
(-0.0827756802967706 0.263748805357727 0)
(-0.0915526146510883 0.269282625603554 -1.69688370516862e-18)
(-0.101094034010913 0.275827251678361 -2.06981533263986e-18)
(-0.10970582468562 0.282906195217956 -2.13914281983268e-18)
(-0.117775102634194 0.290452257847923 3.90908004494805e-22)
(-0.124145142551398 0.298122146123807 -4.22153509073725e-18)
(-0.128086283763327 0.305470304449703 -4.33792190238972e-18)
(-0.129459816743844 0.312452325678077 4.44213916315825e-18)
(-0.128215996233674 0.319199764161806 -8.55151615573329e-22)
(-0.124240319488822 0.325867072193746 1.79976797719563e-21)
(-0.117746041535747 0.33254377568776 0)
(-0.108885922440106 0.339766511731001 2.66620424145144e-18)
(-0.098510064118312 0.349222727382341 -4.89883121664767e-18)
(-0.0877051330196307 0.362999062737672 0)
(-0.0761505931264194 0.382627216918988 -1.45124718582687e-18)
(-0.064848437897004 0.410808646044078 -2.1946036704886e-21)
(-0.0534879419338551 0.449000340353954 4.55576310909633e-21)
(-0.042059252986089 0.497603189847848 -8.40227049747649e-19)
(-0.0293401733485391 0.554155398108085 -8.55610307437016e-19)
(-0.0145386174563292 0.61599602186756 0)
(0.00237040065991324 0.681069250547836 7.93277705617234e-21)
(0.0214096241666223 0.746556507428459 0)
(0.0422509661222496 0.809174687274266 5.65870349723427e-19)
(0.0643804906288629 0.866276781539881 1.17130364962623e-18)
(0.0866664131411426 0.914936753682237 0)
(0.108750049488085 0.952013009868712 -1.24195716558123e-18)
(0.128943190496029 0.977257800466256 3.73268372496814e-21)
(0.146962541629189 0.987422705660197 3.74767645664479e-21)
(0.161788423991097 0.982246501526666 -7.31127295762283e-21)
(0.173210022553522 0.963471892646392 -2.30764016190043e-18)
(0.180221762870864 0.933329898439711 3.39960483523454e-21)
(0.183443470688097 0.890523769385484 -4.74073499388596e-18)
(0.182649428562967 0.839687740505879 -5.75275463158335e-21)
(0.178887576834075 0.783757457191183 1.71124470462139e-22)
(0.172529925693417 0.728748832639132 2.48603074471445e-21)
(0.164535867713048 0.672890075978924 0)
(0.155782952822569 0.621467534489015 2.58151040989094e-18)
(0.14696864065837 0.575210094903465 2.37389522020981e-18)
(0.138442211115274 0.536068466202207 -5.51539334033351e-18)
(0.130169352497154 0.499649676496949 0)
(0.12294231011371 0.470207579752208 -1.94400451107368e-18)
(0.116404806712429 0.447476096484647 1.86549456907496e-18)
(0.110369082649665 0.427562410327834 2.76813862071399e-21)
(0.105107070898117 0.411472048507803 -2.7034807406004e-21)
(0.100483346663852 0.400932878825933 1.23255776608916e-18)
(0.0961053990883842 0.392579979374862 -8.54746972731458e-19)
(0.0922822320293558 0.386337615015648 -2.60773022438929e-21)
(0.0887083745602214 0.384699399887708 0)
(0.0851552068572587 0.383524769914872 -2.76989727604599e-21)
(0.0817400198325839 0.384739633235017 2.71929196176702e-21)
(0.0782364288452843 0.386791594827096 0)
(0.0746367537301203 0.390698660714729 3.01650854783644e-21)
(0.0707775387343365 0.395543200247657 -2.97126147312925e-21)
(0.0667727009121929 0.401037367156521 -1.05373905805231e-18)
(0.062445010967258 0.407270654992883 0)
(0.0579000042111076 0.413790925050143 0)
(0.0529884181666739 0.420800797027479 0)
(0.0477906119607481 0.428120452774196 6.41900553618064e-19)
(0.0422473502047928 0.43562378032511 1.31007785223313e-18)
(0.0365806042222864 0.442986281296334 0)