/*--------------------------------*- C++ -*----------------------------------*\
| =========                 |                                                 |
| \\      /  F ield         | OpenFOAM: The Open Source CFD Toolbox           |
|  \\    /   O peration     | Version:  v2006                                 |
|   \\  /    A nd           | Website:  www.openfoam.com                      |
|    \\/     M anipulation  |                                                 |
\*---------------------------------------------------------------------------*/
FoamFile
{
    version     2.0;
    format      ascii;
    class       volTensorField;
    location    "7000";
    object      grad(U);
}
// * * * * * * * * * * * * * * * * * * * * * * * * * * * * * * * * * * * * * //

dimensions      [0 0 -1 0 0 0 0];


internalField   nonuniform List<tensor> 
14000
(
(-0.011018722408884 0.000385997567131299 0 18.9707070275249 0.0112138754964883 7.58284864005238e-21 0 0 0)
(-0.0236685763262409 0.000125222576030406 0 18.6523477890483 0.0283156006625412 -7.60358579365798e-21 0 0 0)
(-0.0347920282826035 1.45355392520661e-05 0 18.0026145097321 0.0365676415764198 0 0 0 0)
(-0.0411676514509391 0.000294635910636534 0 17.1670393265777 0.0437462546706923 0 0 0 0)
(-0.0579192104223241 0.000988829816912081 -9.01748369826855e-22 16.1600307362379 0.0619703386940637 1.03562814144361e-18 0 0 0)
(-0.0997346781010428 0.0016129409697424 -1.09177338961765e-18 15.1451169151476 0.103507872824864 -6.03822668616788e-21 0 0 0)
(-0.165663363358849 0.00134360450714547 -2.36886024225937e-20 14.2905996927016 0.170726426080498 2.5995300142272e-18 2.66185432744013e-18 3.17969118575498e-20 4.84400010908252e-37)
(-0.25667056601642 -0.000701691778767234 1.09359942054373e-18 13.6416964438747 0.263116714601476 -6.49201378199248e-20 0 0 0)
(-0.373486772791583 -0.00562339462757322 4.71521349573011e-18 13.2235808071343 0.381176373379751 1.15582646205493e-19 0 0 0)
(-0.518965866992018 -0.0149675469623968 4.95383281404739e-19 13.0310764223942 0.528741760579114 -1.29623275186226e-17 0 0 0)
(-0.70480551479354 -0.0313711028054106 -1.44257826349161e-17 13.1086442106538 0.714961099788301 -2.21233633207003e-19 0 0 0)
(-0.932712830777076 -0.0575475577020586 9.88376081328205e-18 13.4048898746266 0.945414481208066 -1.38369468739157e-16 0 0 0)
(-1.22618216430747 -0.0992503453060894 9.71343172031353e-18 13.9547381052509 1.23790673625497 2.44464273942415e-19 -1.02206794057383e-20 -1.04260196858773e-21 1.93458707290255e-40)
(-1.59174497701098 -0.162096501529173 -1.9202420956211e-17 14.7549664159697 1.60374313764988 -5.07150452850776e-19 2.13802697282212e-20 2.41083436415111e-21 -3.98047616605854e-37)
(-2.0436143395381 -0.253880247488261 5.60955720094221e-17 15.7512962573841 2.05368734877358 -2.79232871560516e-16 -1.11913801621501e-20 -1.37402869359703e-21 4.02272190768435e-37)
(-2.60228302255415 -0.385583270426391 4.46875436119458e-17 16.9698691305231 2.60842083683865 -4.675430125148e-17 -5.11735253714344e-17 -7.86508088839463e-18 1.43259023675292e-34)
(-3.28999889139508 -0.570898439907003 6.03428842991149e-18 18.4325521365789 3.28965463501526 -4.41927395964777e-17 -5.58447672907255e-17 -9.96583923129071e-18 1.32985083483922e-34)
(-4.1208780158098 -0.822993660165739 -1.19319272545787e-16 20.1359597860632 4.11041806750329 5.6352936299568e-16 0 0 0)
(-5.09444716555324 -1.15422271361631 -4.60592985459092e-17 22.0024853623414 5.07334295549397 2.49053930971286e-16 0 0 0)
(-6.28852490931269 -1.59934515873839 -1.67500237136077e-16 24.2166551155551 6.24465360822731 4.66271432230311e-16 -1.03025844439179e-20 -2.75999709268928e-21 -3.22208276068085e-38)
(-7.64732643389928 -2.15324592766268 9.31112740803099e-17 26.6416099272294 7.58603219542427 -4.25954045181486e-16 1.05973051100938e-20 2.83895089173154e-21 3.31425520370921e-38)
(-9.28706381617043 -2.87175815140601 8.54104412306003e-18 29.4495801490278 9.18861935434123 4.46730086328855e-20 6.48647356187427e-21 2.06119299216289e-21 -1.15111227116494e-37)
(-11.1545295999407 -3.74448365862534 9.45323904162532e-17 32.6054634874463 11.0250328236418 -3.14297419119589e-16 -6.71702357276849e-21 -2.13445438177085e-21 1.1920264819647e-37)
(-13.4666242135375 -4.87249278475106 1.09933786753371e-16 36.4877961766909 13.2721021068825 -2.401421233065e-16 -2.08808736115998e-21 -7.56237226235833e-22 2.25703591278651e-38)
(-16.0004001001049 -6.13068414649665 1.3263837634923e-17 40.9577469309688 15.7514447924349 -1.91746235982634e-20 2.17397865194485e-21 7.8734425399203e-22 -2.34987672562939e-38)
(-18.8051953612222 -7.53666696055859 6.50734955209295e-19 46.0027806511172 18.478414992839 -1.34639632331633e-18 0 0 0)
(-21.7580109100189 -8.95818097239946 -1.29889446544377e-17 51.821437828843 21.3528503418454 3.29308783009571e-19 0 0 0)
(-24.5842154941807 -10.2016197286625 1.41729454688513e-16 58.1210175034451 24.1080859071009 -2.75967574129067e-16 0 0 0)
(-27.0962930607188 -11.1276843571577 8.21204890019027e-17 64.776085487495 26.5599813435206 -8.32806264025473e-17 4.1885425731306e-16 1.71736037363358e-16 -5.26800534688593e-34)
(-29.1257810433824 -11.6172655291637 -3.08652585652742e-16 71.7570650380064 28.5427627639074 6.95291599986918e-16 4.61901155970323e-16 1.83719573745007e-16 4.47016013900938e-33)
(-30.3653394498508 -11.5262002818985 -8.88370578702958e-17 78.7223000835493 29.7622681543229 4.57092957409931e-18 7.07133223693547e-20 2.4603189094074e-20 -1.75489031647418e-36)
(-30.5977358242723 -10.8252127188597 -8.08314066093433e-17 85.2618456307751 30.0000819600732 2.32159068498215e-16 -5.40177449550805e-16 -1.90042481834443e-16 -1.46678489217611e-33)
(-29.5670052898875 -9.51733805551196 -5.19854860462707e-16 90.780109833445 29.0085567641257 1.76623786963434e-15 0 0 0)
(-27.146737441355 -7.75031852437745 0 94.3063263888466 26.6651095349187 0 0 0 0)
(-23.7231146282022 -5.85623165640723 0 95.713644531321 23.3220480313355 0 0 0 0)
(-19.4083072905524 -4.00530527405842 2.17506669433689e-20 94.309819518802 19.1125744130012 -1.71821419345986e-21 0 0 0)
(-14.9018332384893 -2.49123068380408 -9.62599329157337e-20 90.2179123444559 14.6946150694823 5.9168523358083e-19 6.65292919637535e-20 9.32428879139736e-21 8.77113135624323e-40)
(-10.7047068057679 -1.39493116343438 -4.58517150015033e-20 84.4474488875368 10.5735718824527 2.03233221577495e-20 -6.50944123456452e-21 -3.01184298881009e-21 -1.74122969652883e-39)
(-7.19577838579754 -0.700498122763235 5.55062008568224e-20 78.1361742462193 7.1111849482117 -6.209002537496e-19 -6.12866771584881e-20 -6.47215055257195e-21 8.61485081035668e-40)
(-4.32706972973313 -0.295437740363368 4.35095923082026e-20 71.9813921705191 4.27460433155532 -3.51075078291814e-21 0 0 0)
(-1.99239061910488 -0.0919508292924993 -1.65929620024657e-20 65.6949198803092 1.96177360087578 5.72478753199384e-19 2.45237807026219e-17 7.30718460815307e-19 2.14204267167239e-37)
(-0.161230108932913 -0.0276797670489648 5.48435283434874e-18 59.4453867841482 0.141983058155697 -7.08307544612232e-18 6.86987948862516e-19 4.92590844398494e-22 1.48001834877847e-37)
(1.23451820687484 -0.0518135279053543 1.48893787857179e-17 53.3940490583224 -1.24737077941396 1.58049903635952e-16 -3.98087951513991e-20 4.37700158232232e-22 -2.25662395016178e-37)
(2.24798523233318 -0.126182568576495 -1.13138300964999e-17 47.530145230454 -2.26066282295035 3.12482341718283e-16 3.54494277792817e-17 -1.68712516113939e-18 2.31635171923693e-34)
(2.92645367693602 -0.22205982252329 -7.54516571004001e-17 41.7712557105269 -2.9408907103768 -6.00651364307151e-16 -6.23950437222492e-17 4.39460062550984e-18 9.00699440445131e-34)
(3.31389387084076 -0.31733466895131 6.02147811274039e-17 36.3488042532921 -3.33610258657113 2.02321660683281e-16 2.21327771470628e-20 -2.3286519910014e-21 -2.68882989104152e-38)
(3.45355753315166 -0.398004000924621 4.50100335397144e-17 31.0384900888338 -3.48062772108704 5.55639438150402e-16 -3.99771366177302e-20 4.59975073157567e-21 7.66465910026585e-37)
(3.3719674857073 -0.450526926442036 3.06689796585178e-17 26.0207188090092 -3.41105945133222 3.89761875387461e-16 -7.81949590652302e-17 1.02523034657711e-17 -1.16859461673349e-33)
(3.13093912879622 -0.473567406981769 3.87232885675758e-17 21.3011459801407 -3.17672310530454 -3.15325166059266e-18 0 0 0)
(2.72374322990115 -0.457891120343 -3.51216211738085e-17 16.7240495225194 -2.78114650744635 2.82858775622994e-18 0 0 0)
(2.18162184264815 -0.40187641950599 2.90575602724476e-17 12.298750773973 -2.24629059183968 3.49010370477375e-16 -3.72593154305962e-17 6.80602296628919e-18 -1.04885735848049e-33)
(1.58785206091945 -0.317063454067453 -1.29560994409088e-16 8.38521739007213 -1.66342695457363 -8.26031353750003e-16 -2.54587782381495e-17 5.05039705616361e-18 2.49992109529167e-33)
(0.955122559430439 -0.20531056151041 3.24980301796494e-16 4.83386977701202 -1.03352403089466 1.08037092242334e-15 -1.48795604521752e-21 5.14639305741769e-22 1.17036909730929e-36)
(0.314735606520508 -0.0755384944762777 1.21080477342734e-16 1.69161586442676 -0.401225079820382 3.9861579508357e-16 5.15574992011717e-18 -1.22301845060647e-18 1.22326170522754e-33)
(-0.288788044936075 0.0615952636630961 -3.80354700605922e-16 -0.9864119217388 0.202795120317279 -1.23940246636148e-15 -3.04002626209948e-18 6.25209050804436e-19 -3.81096097600442e-33)
(-0.791677879954676 0.183812119661483 3.67338353608735e-17 -3.05002050075367 0.701895117727964 2.73487294364817e-16 9.3876845190184e-18 -2.1599625561042e-18 -8.32059263720677e-34)
(-1.20035391029303 0.292197013095329 -7.26099952234185e-17 -4.60302889167405 1.11469622565119 4.15759141077993e-18 -1.15078649758888e-20 2.36384101144387e-21 -1.72783092944592e-36)
(-1.53004460824069 0.382369727544938 -1.52658534663607e-16 -5.7986628682413 1.44419042896205 -5.77601983256427e-16 3.57288931074366e-17 -8.89863163352997e-18 3.56379435944385e-33)
(-1.76405672824247 0.449626219913621 -2.12958608900317e-16 -6.61806187542271 1.68313549454515 -1.36460324060734e-15 -1.44335265072577e-20 3.28775746014521e-21 -5.89869606670654e-36)
(-1.91065693149193 0.491552336631629 -9.73647943021958e-17 -7.13037045421841 1.83166789675018 -3.7290383245861e-16 0 0 0)
(-2.00016082495599 0.519391960010192 2.63031358331082e-16 -7.42388761716583 1.9262204667026 1.15317923881222e-15 4.58153454517491e-17 -1.18875058996735e-17 -7.09882239372515e-33)
(-2.05793987865413 0.534485360603479 -3.22432693842216e-16 -7.64993857770523 1.98740008269708 -1.06007582357088e-15 -1.60037083389427e-20 3.86149810044327e-21 -2.09461165125351e-36)
(-2.04836371948238 0.527728035353897 7.37108701895755e-17 -7.68411146319964 1.98154342185682 2.82948729285201e-16 4.73957232794724e-17 -1.22220113319026e-17 -1.74448460073535e-33)
(-2.01502372504523 0.514552534356204 3.79599463792728e-17 -7.63378881114973 1.95218578479082 -2.584862617031e-18 3.09215135151691e-20 -7.39742212026365e-21 2.01487991731933e-36)
(-1.96760556634585 0.495286403010184 5.47637022253141e-21 -7.56282609987144 1.90851466149029 -1.23048114914742e-19 -1.51511129743723e-20 3.60957814786113e-21 -9.33236442550703e-40)
(-1.88917215217034 0.464411378830396 -4.06324404686065e-16 -7.43298422765597 1.83370200141788 -1.54162113233608e-15 -4.56983543873887e-17 1.12733127791952e-17 -9.4857729259511e-33)
(-1.7885470551597 0.428103118882369 2.42152810001093e-17 -7.22239457470326 1.73605193548749 9.98303677622707e-17 2.21465888452229e-17 -5.32344508170171e-18 -3.0790962303589e-34)
(-1.68945130253661 0.392481387357742 -7.6719910206784e-17 -7.02621215917835 1.64142947483411 -3.26557945227814e-16 -2.15237447149973e-17 5.02799362917173e-18 -9.99935251867075e-34)
(-1.56164527446989 0.34764454807611 -2.54390547177517e-17 -6.76114874930968 1.51575501355475 -2.1874171678895e-16 2.06824402384883e-17 -4.63624595718481e-18 6.64340317552324e-34)
(-1.42993855188154 0.305107173576602 -3.08769390758537e-17 -6.45396008470988 1.38856694465393 -1.5006843353743e-16 -1.96777259114406e-17 4.23359433271379e-18 -4.58960182907568e-34)
(-1.29068990186226 0.261315753081082 -6.2988790314605e-17 -6.11993762512863 1.25182451717173 -1.77973849162113e-16 -2.51970117266333e-20 5.0075033936389e-21 1.22911034359465e-36)
(-1.14399765066596 0.218597632064724 -3.33582263107629e-17 -5.73156179444317 1.10914668082387 -2.2379799749492e-16 -1.74220575014819e-17 3.37092089700373e-18 -6.78154249911498e-34)
(-0.992768787579312 0.17689567006317 -1.20860071940685e-19 -5.30863025772737 0.96119138433838 -5.13505970916124e-19 -2.15238930552665e-20 3.58384220447879e-21 -1.49051465326341e-41)
(-0.835075519695696 0.137330099603141 7.77716087020606e-18 -4.81036439235026 0.807146196847047 -4.34602660759224e-20 2.12005725900689e-20 -3.53000763441419e-21 1.46812493548143e-41)
(-0.681044382550388 0.102158850087562 1.20521900059199e-17 -4.26809980927578 0.657068601289793 1.14568920648799e-16 -1.792341022651e-20 2.54069566108088e-21 8.47450062860888e-38)
(-0.526548106929219 0.0704955047540183 -2.83762884569686e-17 -3.64826665237062 0.506037736039095 -9.82181930524444e-17 1.76966334758327e-20 -2.50854939543174e-21 -8.36727662983402e-38)
(-0.379855086567602 0.0442004457829119 -2.07312676063359e-17 -2.9675646600115 0.363687202755811 -2.01256667425197e-16 -1.34753320660076e-20 1.55043243977943e-21 -4.84787672573165e-37)
(-0.240047700609029 0.0225427471300767 5.74558569545809e-18 -2.20442841180231 0.227327790325805 -1.93035352320769e-19 2.45915696439341e-21 -4.37007160566669e-22 4.78967580448309e-37)
(-0.113087153121286 0.00644876374664975 -1.5510239397033e-18 -1.36377299935094 0.104851695527254 -2.10394594609874e-19 1.07815006272329e-20 -1.0878009122065e-21 8.66638248235146e-40)
(-0.00114115478495261 -0.00459531956584975 7.55385497867428e-19 -0.421254370779628 -0.00397665012055486 8.31730964122058e-18 6.22322039802662e-19 6.648496993929e-21 -1.25730978028625e-35)
(0.0889164245147253 -0.0104611196171426 2.21022094908545e-18 0.594778984804528 -0.0896457556298806 -2.46956962706542e-19 6.06629015097362e-21 -3.81254257292973e-22 6.77051332807149e-38)
(0.156061978018835 -0.0122988128307814 8.13745332219216e-19 1.71854427617358 -0.154431903787006 1.00177185437214e-17 -1.29380671847282e-21 4.92308587962819e-23 5.6380558220148e-38)
(0.195547973923006 -0.0106799553251917 -5.90763539764304e-19 2.93472385062654 -0.189939355143815 2.40735355029398e-18 -6.77994839525767e-21 2.71498534103493e-22 -1.32919113608231e-38)
(0.204373445620211 -0.00693132910599534 -9.8169906722295e-20 4.28471162335783 -0.19786037301327 1.11184620452705e-19 -3.20099876379002e-18 1.4751931173764e-19 -7.06233312915657e-38)
(0.180228598105946 -0.00223206490560002 -3.235005775231e-20 5.71638868156137 -0.169796076144111 -2.30984913234446e-19 1.13798830872173e-20 -2.83313528151591e-22 5.03126855635122e-39)
(0.120648386577374 0.000912733030966081 -6.76376551997443e-20 7.39907149999824 -0.112961981291395 1.09987102622049e-19 6.89423852461667e-19 -1.05127716734665e-20 9.92371322631837e-39)
(0.066587502914178 0.000767220946163908 3.62586922983166e-20 9.21620837137248 -0.0595253846220837 -5.58961902460272e-20 2.80429413735878e-20 1.73722163514297e-24 2.257687608656e-40)
(0.05149954036067 -2.92960053148784e-05 3.3110642196872e-21 10.6382826884587 -0.0427597552636777 6.21395857515074e-20 -7.5643550305917e-20 6.08645540446204e-23 -8.07605111341131e-40)
(0.0420448532361266 -6.62087294367513e-05 -8.90687797374293e-21 11.7696592257933 -0.0378931251219835 5.79210743443415e-21 -3.39240670739984e-21 5.37091069282072e-24 7.14915543663422e-40)
(0.0374855216261018 -2.63870197310349e-05 2.83576242965152e-21 12.783865519969 -0.0327389419669923 -4.26829084734102e-20 3.55098175586226e-20 -5.74843119807453e-24 -2.23725461253348e-40)
(0.0323081654153913 -2.71932088689183e-05 -3.95779109375152e-23 13.6681494816069 -0.0289484380579098 9.0590773633043e-20 -4.11077418294492e-20 1.00386172283826e-23 -7.25796026548409e-43)
(0.0286312665475508 -1.23513383631536e-05 -1.51110474674186e-21 14.4460000187445 -0.0256677820472541 -1.37341393480772e-19 4.11076922030105e-20 -1.00386051094774e-23 7.25795150346739e-43)
(0.024674247079611 -5.28878407700015e-06 1.54810938025985e-21 15.1349126571513 -0.022449507468029 2.20566485158853e-20 -2.26827460551648e-20 5.70777049637029e-24 -1.98294138178552e-42)
(0.0218472106772631 -3.68227938896436e-06 -1.50225640698024e-21 15.7405134828413 -0.0198427916342723 2.5362056436475e-20 2.26826716200611e-20 -5.70775176590054e-24 1.98293487461716e-42)
(0.0188630691606974 -4.06494006445623e-07 1.54203149141736e-22 16.2729497931055 -0.0173792463082944 -4.19952482196934e-20 0 0 0)
(0.0166996767752396 1.49026972612211e-06 6.05006571097936e-23 16.7405744588223 -0.0153841000316968 2.67441269689197e-20 2.49544866914502e-20 -5.77792013159989e-24 -4.97262431674321e-41)
(0.0145347126595272 9.86368830544874e-06 1.36092879123725e-21 17.1490537048038 -0.0134833298861994 7.89532881356312e-22 5.69226541983262e-22 4.06921387219873e-25 5.46175431405021e-41)
(0.0124894664980797 5.45215701971236e-06 2.3768448137918e-24 17.5099142031396 -0.0116737509015017 8.75532261042515e-22 4.95777386458086e-22 2.22446503386616e-25 9.51147894525038e-44)
(0.0111511087477718 2.91532811467289e-06 1.96073508249875e-21 17.8244236889631 -0.0103990681580659 1.80953476292009e-20 4.26811522373932e-22 1.29065443921316e-25 7.86689190537127e-41)
(0.00973556975037431 7.0779395381661e-06 -1.10862973504736e-21 18.0983241904253 -0.00916000215324689 2.97326444550173e-20 -5.32636636083111e-20 9.74507722561167e-24 -1.22786017601351e-40)
(0.00852735519166374 2.27551174338666e-06 -2.02352232163409e-21 18.3401434515061 -0.00806810656220116 -4.63248010835037e-20 2.68174820960814e-20 -4.7256149860737e-24 3.91308282347298e-41)
(0.00778967048257535 4.84619693928334e-06 1.27281799187667e-21 18.54920614501 -0.00732270394021715 4.55501109015329e-21 0 0 0)
(0.00672793994891142 9.54579990031003e-06 6.38180270995121e-25 18.7325741555754 -0.00641723780926039 1.75960790611619e-20 0 0 0)
(0.00597419057060822 4.48095600200799e-06 -2.25389206298977e-22 18.8946168620287 -0.00566110238917729 7.68715070983167e-24 0 0 0)
(0.00538651334161344 1.3170663331197e-06 -1.87413176650655e-22 19.0353860913122 -0.00512480882346603 -3.07979354524657e-21 0 0 0)
(0.00492879041051709 3.19867263896993e-06 -3.52361241438028e-22 19.1577914817314 -0.00469820298602051 2.70042854608611e-22 1.39384614670906e-20 -3.4181805562728e-24 1.88568521387102e-43)
(0.00444770462362155 5.06996483096933e-06 1.87150567785008e-22 19.2650430867793 -0.00424046823153786 -2.24997908047348e-21 1.40165049584871e-20 -3.08511085199785e-24 -1.6325379165221e-42)
(0.00399966276852491 4.89670161808094e-06 3.52373536854923e-22 19.3598830991447 -0.00383051195112917 -1.07187053275778e-23 0 0 0)
(0.00366910855898375 4.03306828083305e-06 -1.47658137747802e-22 19.4422211348262 -0.0034682584582365 -9.38638410399978e-21 0 0 0)
(0.00323908597388258 -2.84333771661651e-06 2.77418176605881e-22 19.5164119978647 -0.00315635214352314 7.30282697988048e-21 0 0 0)
(0.00341148882633688 4.89708306479673e-07 -1.15005392671719e-22 19.5779970331378 -0.00317640461386043 -3.76693381193867e-22 -2.84882823860619e-20 4.6220506854933e-24 5.52796656677615e-43)
(0.00287467310535815 4.38314980672148e-06 -5.24090649900115e-22 19.6336555740732 -0.00283228666397752 4.20026506193151e-21 0 0 0)
(0.00288849792273864 5.47398089624778e-07 2.81228322776409e-23 19.6832776788214 -0.00270681091321262 -9.84026443798013e-23 0 0 0)
(0.00261835553797536 -1.87730775593659e-06 6.77638672712068e-22 19.7263900156187 -0.00253968242066045 -1.0769326943434e-20 0 0 0)
(0.00268585301195379 -1.02778999943269e-06 -1.95991533454787e-22 19.7640349406622 -0.00256618871690893 1.27624402957868e-20 -2.89604197263819e-20 3.01603875800886e-24 -2.1354295991514e-45)
(0.00257643818018581 7.78766291932939e-06 -6.25473971685227e-22 19.7955341942853 -0.00243734647264077 -9.49539599198524e-21 5.77651355489078e-20 -6.56240987232832e-24 -1.38353364721479e-41)
(0.00210252532261519 7.9241476562942e-07 6.96502789787405e-23 19.827751672836 -0.00208731285898878 3.26242723798207e-21 1.45202901155795e-20 -1.32964569887167e-24 -1.11404163357339e-41)
(0.00238301400939236 -5.2067171386075e-06 3.85288712657885e-22 19.8540846778378 -0.00221069528284767 -1.38791919113621e-20 1.45500460055417e-20 -1.53126066128291e-24 4.36723252150837e-42)
(0.0022301811421908 5.58187494975944e-07 3.71156671705095e-22 19.8758218653368 -0.00218950026562419 8.39756795679834e-21 -1.45217976557324e-20 1.44511046454975e-24 1.08204750886254e-41)
(0.00222640324201464 7.91380173652907e-07 -3.45132872033342e-22 19.8963867236007 -0.00212502843751106 1.32737669673518e-22 1.28820558655306e-23 1.92733839630302e-26 -6.92522490495336e-42)
(0.00213328352826283 9.88621776751862e-07 4.44800319650715e-22 19.9151440827223 -0.00207494550737266 -2.15822211612012e-21 1.095460683611e-23 2.31539470092263e-26 8.92819889303334e-42)
(0.00213422140772792 7.11311918531187e-07 5.88686131255749e-25 19.9306996711129 -0.00201485983865957 8.76836224792264e-21 -4.37372120997932e-20 4.08494291383599e-24 -1.81463845157379e-41)
(0.00192874837770572 -5.1632118583468e-06 -4.54241050028538e-22 19.9475208878081 -0.00195865098845652 -4.38734612689134e-21 1.39260424430578e-22 1.38571632254125e-25 1.84910636575186e-41)
(0.00242430859156807 3.63694262404386e-06 4.12532654775103e-22 19.9570505216567 -0.00219183484602386 2.10729221823498e-21 2.90397661006184e-20 -3.18929365224958e-24 3.07550329107714e-42)
(0.00164998962337382 3.79528280201641e-07 -1.1799903253362e-22 19.9715227903125 -0.00179140507837916 3.60254643015348e-21 -2.90608439697897e-20 2.60668349106362e-24 -5.23956364423959e-42)
(0.00235128817902481 -3.61586264418425e-06 -1.42001297416945e-22 19.9818322360747 -0.00210966514636648 -3.61448616700387e-21 1.46129317698068e-20 -1.43730865776605e-24 -1.90021619315602e-46)
(0.00186759588514397 5.23991867638425e-06 1.04921870116772e-23 19.9903020861308 -0.00192195151165227 -1.84119115154561e-21 -4.37010315902496e-20 4.2338637614174e-24 2.6792389359855e-42)
(0.00197098160581193 9.39444424816336e-07 -1.14769082358294e-22 20.0010801188772 -0.00187862638333613 -1.40356311670568e-21 0 0 0)
(0.00189118038373569 7.69813599068815e-08 1.11385183577921e-22 20.0096086140102 -0.00183815762198828 3.21851377112536e-21 1.46325259503978e-20 -1.30282264466597e-24 1.42415575041148e-43)
(0.00186903533728189 1.14385981392724e-06 1.23747405930314e-22 20.018201605205 -0.0018455766264996 1.49625750181274e-21 1.44963127897381e-20 -1.38269368803061e-24 2.03653131361163e-42)
(0.00190040821850369 5.96583744957784e-06 -4.47382642968968e-23 20.0251813674889 -0.00179963468389793 4.61723386216627e-22 -3.64614568933756e-20 3.19581941956648e-24 -1.53341963510275e-42)
(0.00153866855506641 -4.29853506369098e-07 -1.27244861227399e-22 20.0360997658443 -0.00159525003923749 -1.19296144607251e-21 7.32248847346256e-21 -5.77213491616501e-25 8.62248312807577e-43)
(0.00193114685651089 -8.3378013411269e-06 7.08477619160813e-23 20.0438802253164 -0.00178844846029192 -4.95073041869698e-25 0 0 0)
(0.00193356867317824 7.87973914939906e-06 -2.04968591821645e-24 20.051754830175 -0.0020040926363237 4.18074235678531e-22 -7.33205196021036e-21 5.8207410426376e-25 -2.76269937610203e-43)
(0.00179436112155986 -3.70496111926222e-06 -8.74982612412358e-23 20.0588917922974 -0.00158575091820911 -6.55071689636133e-22 7.3320301705232e-21 -5.82072374432506e-25 2.76269116580081e-43)
(0.00180130369650426 9.37878236270141e-06 -9.57409330145884e-21 20.0808028156258 -0.00224775376732262 -1.25052651044307e-16 3.67069308737568e-21 -2.61268559532238e-25 -3.74060493828412e-43)
(0.002390150808236 -2.58343279997546e-05 -5.48085793511811e-21 20.0740454151004 -0.00133952711489761 -9.37024744624344e-17 -7.34740853608834e-21 6.5171660592949e-25 6.60494083854084e-43)
(0.00187988509457764 4.58614340808203e-05 2.0308258873906e-23 20.1313009655775 -0.00391426972390333 -5.69728283954806e-22 3.67672196461476e-21 -3.90447986804824e-25 -2.86434612725496e-43)
(0.00164194656651481 -0.000234079943126216 -8.17713494916789e-23 20.0977296842597 0.00143624100622457 -1.67016440876034e-23 -1.37017037660077e-20 -1.37821303794882e-24 -1.36444282724234e-43)
(0.0125554894317867 -0.000339828037158509 -1.25646260022853e-22 20.1673489363462 -0.0169346408802859 2.02372981754182e-22 -9.20515356129798e-22 3.33360214336934e-25 1.48623277081386e-43)
(-0.0207496763214909 0.00253169155675512 -1.54048698469886e-24 18.2321943561248 0.017403722902034 3.47401058257319e-22 -2.48672398746311e-21 -3.02869917360673e-24 1.84290682846427e-45)
(-0.0470951126694858 0.00175207676679199 -5.63273125003405e-22 18.1098000555034 0.048636188214292 -3.49392175161584e-22 2.48672433627244e-21 3.02869959843817e-24 -1.84290708696626e-45)
(-0.0738527798827991 0.00113091923124894 5.64813551379814e-22 17.8526351347905 0.0718391880475966 1.04105250660349e-24 0 0 0)
(-0.0937411395803831 0.00157765731049798 7.69273444249984e-20 17.4326343387147 0.0918512745967705 2.83582011230861e-22 0 0 0)
(-0.119119783322835 0.00324170007317317 5.74331066716132e-22 16.8747149019932 0.117799019386361 -6.65795344362795e-19 -3.75953034363611e-19 -2.05951284619829e-21 -3.75214098158337e-39)
(-0.164073507541522 0.00529740185736485 1.26065562731689e-18 16.2408153089779 0.160829128972807 -4.19678998879043e-20 0 0 0)
(-0.229993092914997 0.00657042502015434 -1.53286065253525e-19 15.6159605163616 0.226405706665791 1.55360480576605e-17 -2.55495476485322e-18 -3.05787323524806e-20 -4.74951062464066e-37)
(-0.320963914065716 0.00603703249154065 -8.55356473992451e-19 15.0729554124009 0.316793491354566 -2.77078130426573e-17 1.51325471373509e-20 2.39600809321095e-22 1.27681461805969e-38)
(-0.438466189068507 0.00264857077504998 -5.89717252420371e-18 14.651715545806 0.433139568300279 -4.53639408316374e-20 -1.42101634322901e-20 -4.89538135380418e-22 5.66704941414315e-38)
(-0.583037889558944 -0.0048044313109559 3.19350959860078e-19 14.3694960842929 0.577396349977999 -7.82034207309768e-18 1.99999603668279e-17 8.07045421009711e-19 -1.51101547275683e-35)
(-0.762553228404689 -0.0185948460483871 -1.15117613150848e-15 14.2472432630893 0.75495437529486 2.13908539328767e-14 1.42684519407661e-20 8.83014531051014e-22 1.15008657139654e-40)
(-0.975607415559463 -0.0407482689176968 -1.53970494023133e-15 14.2775527076615 0.969220188333609 2.18570642990965e-14 -4.36665882936745e-20 -3.20018218499664e-21 -4.63282280672645e-40)
(-1.23877462030709 -0.075725410488287 1.11309152308041e-17 14.4726937446918 1.23065395098705 -1.24942850679892e-16 -1.09304924997725e-21 -6.70280600951601e-22 3.46567950110117e-40)
(-1.55210625262335 -0.127833512101966 -4.22318322612023e-20 14.8256499316361 1.54620964473886 3.82882402955316e-19 -1.48888711761621e-21 -8.23644335787718e-22 2.92038078854638e-42)
(-1.92769834523697 -0.202915855286339 -5.83685932534094e-17 15.3283408529625 1.92398962588825 2.66353437166285e-16 -1.84627392430706e-21 -1.00500668569784e-21 4.60491713145356e-37)
(-2.37458713834898 -0.308340914724499 2.12768606627396e-17 15.9782498904776 2.37498663529828 -2.78488188846288e-16 4.88730053367876e-17 7.51126532623579e-18 -1.36406120502919e-34)
(-2.90500688448093 -0.453736426754225 5.15324666598056e-17 16.7851265433533 2.9124697135591 -3.54762612591812e-17 5.32680853501945e-17 9.50614614173679e-18 -1.27637669208115e-34)
(-3.52932649435571 -0.648993743796301 1.18283084619052e-16 17.7562457355157 3.54671712518228 -4.63674897660269e-16 -1.12517915304134e-16 -2.27286882128163e-17 -2.24451808617374e-34)
(-4.25161661979419 -0.902459411154557 8.47737932988902e-17 18.8786455664353 4.28441745097054 -4.55528907707149e-16 0 0 0)
(-5.10859070680531 -1.23637375557241 1.16730186121643e-16 20.1959114772323 5.15629428701822 -4.4528033166876e-16 0 0 0)
(-6.07779163795679 -1.65029464116951 -1.1752049554943e-16 21.7050533419396 6.1563628158678 4.0615605644668e-16 -2.94707294565454e-20 -8.87956698749758e-21 -7.93295453300478e-43)
(-7.22661177736542 -2.17930223357555 4.18747274077173e-21 23.4606446349096 7.32942351646077 -2.55330494582514e-20 3.04212572692076e-20 9.16596218509384e-21 8.18881837008163e-43)
(-8.51874271744166 -2.81619044375344 -1.98403793779935e-16 25.4794844674892 8.67086754064887 5.77888582937287e-16 0 0 0)
(-10.0650764385027 -3.62157520384171 -6.98840504559494e-18 27.8968497668141 10.2613103026475 1.76372101284818e-17 1.02617791744582e-20 3.89716261498018e-21 -1.11242702359765e-42)
(-11.7603220031423 -4.52899681346621 5.03112776398274e-17 30.7696743653266 12.0370382634819 -1.24421098141839e-16 1.24319915943821e-20 5.17932689675365e-21 1.08490675899552e-38)
(-13.6697473568555 -5.55221807266632 -3.00442350869167e-18 34.1500343707342 14.0100093714502 7.12310949593699e-18 -5.02959455922465e-16 -2.03918880908871e-16 -3.76346290740833e-35)
(-15.6790618889157 -6.60102313103389 -1.8230313421903e-18 38.0974785942804 16.1073659930367 3.20997539481384e-20 1.1744000673699e-19 4.94355359167048e-20 1.77080931069478e-42)
(-17.7006506034122 -7.56587900163813 -1.41078667705176e-16 42.631708632858 18.2060140753992 2.63403760839658e-16 -1.22476462577861e-19 -5.15555961971154e-20 -1.84675108849023e-42)
(-19.6067874832936 -8.34059808457834 1.98912274358397e-16 47.6817027251762 20.1723466109048 -4.73556095829457e-16 -3.99450182209866e-16 -1.63780098253892e-16 5.02395680348387e-34)
(-21.2521056853378 -8.82413738870787 5.70647421711122e-16 53.1876528016486 21.8630507790148 -1.33475950079903e-15 3.42310380198946e-16 1.40685815063049e-16 -8.58118446544144e-33)
(-22.4462792856337 -8.90860562630909 6.70680773260667e-17 59.0187029803414 23.0789537555732 -3.51933738336777e-18 0 0 0)
(-23.0205700181316 -8.55108152015398 -3.5334354500844e-16 64.9345597912627 23.6380839884437 1.20284337321108e-15 5.15122947017454e-16 1.81228204954052e-16 1.40067042041612e-33)
(-22.7625998675654 -7.73057636287194 8.62955722480043e-16 70.5627761041251 23.3336943151104 -2.880437953724e-15 9.85182964237934e-16 3.19627984722431e-16 -7.4984938744465e-33)
(-21.5453415918217 -6.52368287427159 -8.07687270096687e-17 75.3277513195902 22.0330633081096 5.3286656548374e-18 0 0 0)
(-19.4787207949445 -5.13715462314833 2.54038354579428e-19 78.7756849132925 19.8563034774558 -1.03731542213817e-18 0 0 0)