/*--------------------------------*- C++ -*----------------------------------*\
| =========                 |                                                 |
| \\      /  F ield         | OpenFOAM: The Open Source CFD Toolbox           |
|  \\    /   O peration     | Version:  v2006                                 |
|   \\  /    A nd           | Website:  www.openfoam.com                      |
|    \\/     M anipulation  |                                                 |
\*---------------------------------------------------------------------------*/
FoamFile
{
    version     2.0;
    format      ascii;
    class       surfaceScalarField;
    location    "7000";
    object      phi;
}
// * * * * * * * * * * * * * * * * * * * * * * * * * * * * * * * * * * * * * //

dimensions      [0 3 -1 0 0 0 0];
oriented        oriented;


internalField   nonuniform List<scalar> 
27760
(
8.22064417176805e-05
1.09052655739294e-06
7.9079798017864e-05
3.12664369981536e-06
7.49667531237899e-05
4.11304489407356e-06
7.0036649162164e-05
4.93010396162154e-06
6.46772459909554e-05
5.35940317121099e-06
6.00575899285439e-05
4.61965606241413e-06
5.64873427156898e-05
3.57024721285189e-06
5.40346426228399e-05
2.45270009284853e-06
5.2724736024465e-05
1.30990659837053e-06
5.25392055228226e-05
1.85530501642637e-07
5.35809255086253e-05
-1.04171998580425e-06
5.54570736910014e-05
-1.87614818237486e-06
5.85543264637754e-05
-3.09725277277618e-06
6.23488780175803e-05
-3.79455155380536e-06
6.67845310708616e-05
-4.43565305327813e-06
7.19046671978789e-05
-5.12013612701247e-06
7.75783790924519e-05
-5.67371189457254e-06
8.34439558381214e-05
-5.86557674567137e-06
8.93884902500549e-05
-5.94453441192995e-06
9.59071224246197e-05
-6.51863217456545e-06
0.00010182514704069
-5.91802461607146e-06
0.000108392195918606
-6.56704887791782e-06
0.000114655312153581
-6.26311623497456e-06
0.000122238470037555
-7.58315788397438e-06
0.000128451611526399
-6.21314148884499e-06
0.00013490305291356
-6.45144138716024e-06
0.000140320885331922
-5.41783241836203e-06
0.000144135714416843
-3.81482908492374e-06
0.000146640066774447
-2.5043523576044e-06
0.000147771770114846
-1.13170334039864e-06
0.000147081625716871
6.90144397972497e-07
0.000144585893947577
2.4957317692954e-06
0.000139606092855224
4.97980109235927e-06
0.00013216754001668
7.43855283854035e-06
0.0001231306446757
9.03689534098862e-06
0.000111773488926669
1.13571557490308e-05
0.000100160852386316
1.16126365403687e-05
8.90569599364533e-05
1.11038924498702e-05
7.96281593093042e-05
9.42880062714728e-06
7.12882362501147e-05
8.33992305919399e-06
6.36392848920746e-05
7.64895135805158e-06
5.67966762453439e-05
6.84260864672395e-06
5.05198580958539e-05
6.27681814949742e-06
4.46467435177784e-05
5.8731145780763e-06
3.90400458913911e-05
5.60669762637799e-06
3.37870733700909e-05
5.25297252131078e-06
2.84520937769208e-05
5.3349795931673e-06
2.34704008583389e-05
4.9816929185816e-06
1.83216922904481e-05
5.14870856789254e-06
1.31126680562434e-05
5.20902423420526e-06
7.84050817085467e-06
5.2721598853802e-06
3.00097408274844e-06
4.83953408809897e-06
-1.91971233777723e-06
4.92068642052002e-06
-6.37008467494227e-06
4.45037233716579e-06
-1.05417057772437e-05
4.17162110230593e-06
-1.38677354304375e-05
3.32602965320259e-06
-1.69145922300233e-05
3.04685679958702e-06
-1.93763374759298e-05
2.4617452459001e-06
-2.14940441217005e-05
2.11770664574148e-06
-2.30712788141317e-05
1.57723469244558e-06
-2.45355371553788e-05
1.46425834123158e-06
-2.57843685969386e-05
1.24883144159328e-06
-2.67002649258488e-05
9.15896328906551e-07
-2.75118649149694e-05
8.11599989117725e-07
-2.82550198732016e-05
7.4315495823369e-07
-2.87791170174885e-05
5.24097144287674e-07
-2.91047573814045e-05
3.25640363920762e-07
-2.9425795316056e-05
3.21037934653122e-07
-2.9361134981615e-05
-6.46603344601853e-08
-2.92027407255838e-05
-1.58394256012915e-07
-2.87180705909174e-05
-4.84670134673153e-07
-2.80140089964218e-05
-7.04061594478033e-07
-2.69477937610685e-05
-1.06621523534888e-06
-2.54934185438749e-05
-1.45437521719249e-06
-2.36672395192162e-05
-1.82617902465967e-06
-2.13419366402943e-05
-2.32530287892251e-06
-1.85914908840709e-05
-2.75044575622405e-06
-1.52605451355431e-05
-3.33094574852739e-06
-1.14131091690444e-05
-3.84743596649882e-06
-6.91807817177346e-06
-4.49503099727075e-06
-1.93747942743539e-06
-4.98059874433703e-06
3.7609193045082e-06
-5.69839873194338e-06
1.0012244911894e-05
-6.25132560738485e-06
1.7030766079398e-05
-7.01852116750287e-06
2.47177263385519e-05
-7.68696025915265e-06
3.38713221076975e-05
-9.15359576914413e-06
4.21013003472409e-05
-8.22997823954193e-06
4.79254494190925e-05
-5.82414907185114e-06
5.31289235223354e-05
-5.20347410324206e-06
5.75718612360948e-05
-4.44293771375909e-06
6.14607992432877e-05
-3.88893800719212e-06
6.48416375619347e-05
-3.38083831864656e-06
6.78231127478619e-05
-2.98147518592674e-06
7.03961136434298e-05
-2.57300089556712e-06
7.26557929265514e-05
-2.25967928312129e-06
7.46041034976383e-05
-1.94831057108615e-06
7.63047377213302e-05
-1.70063422369134e-06
7.77914629611503e-05
-1.48672523981961e-06
7.90614557237078e-05
-1.26999276255678e-06
8.01729979063178e-05
-1.11154218260921e-06
8.1138692976138e-05
-9.6569506982036e-07
8.1959812883285e-05
-8.21119907146648e-07
8.26905751617279e-05
-7.30762278442481e-07
8.33203119051164e-05
-6.29736743387887e-07
8.3861341488486e-05
-5.41029583369534e-07
8.43298564204647e-05
-4.68514931978302e-07
8.47405363745484e-05
-4.10679954082867e-07
8.50995315455435e-05
-3.58995170993461e-07
8.54101459257871e-05
-3.10614380244189e-07
8.56871764678518e-05
-2.77030542064112e-07
8.59043824828773e-05
-2.1720601502473e-07
8.61233132747368e-05
-2.18930791857963e-07
8.62981815840714e-05
-1.74868309333997e-07
8.64584668810662e-05
-1.60285296993849e-07
8.65881728034286e-05
-1.29705922361429e-07
8.67087680038016e-05
-1.20595200372486e-07
8.68354199142584e-05
-1.26651910455543e-07
8.69149507504187e-05
-7.9530836159739e-08
8.70001471492536e-05
-8.51963988341953e-08
8.70756606444713e-05
-7.55134952174614e-08
8.71438441524493e-05
-6.81835079775699e-08
8.72035043923258e-05
-5.96602398762895e-08
8.72649330714754e-05
-6.14286791490005e-08
8.72915501629683e-05
-2.6617091490865e-08
8.73695468745321e-05
-7.79967115644406e-08
8.73828753850336e-05
-1.33285105008798e-08
8.7436620975925e-05
-5.37455908902224e-08
8.74754952652804e-05
-3.8874289354634e-08
8.75115868890411e-05
-3.60916237595233e-08
8.7548320489383e-05
-3.67336003413511e-08
8.75845390202848e-05
-3.62185309008751e-08
8.7641886246214e-05
-5.734722592803e-08
8.76647063761885e-05
-2.28201299744667e-08
8.77114649797569e-05
-4.67586035683673e-08
8.77722796127758e-05
-6.08146330176897e-08
8.78568847090999e-05
-8.46050963213792e-08
8.78812922849563e-05
-2.44075758586529e-08
8.81677648064819e-05
-2.86472521525048e-07
8.78944743413238e-05
2.73290465159749e-07
-6.25387255370902e-07
0.000261731883491897
3.40160202757084e-06
0.000255440931464952
9.41759572675686e-06
0.000246234036089433
1.33199402695909e-05
0.000234459604930558
1.67045351205023e-05
0.000221181142787701
1.8637865314068e-05
0.000208733344333367
1.70674545167528e-05
0.000198311953116962
1.39916384292615e-05
0.000190463362277053
1.0301290932762e-05
0.00018537241245407
6.40085642135152e-06
0.000183113008371006
2.44493458470325e-06
0.000183809371907054
-1.7380835218449e-06
0.000186854054121945
-4.92083039726636e-06
0.000192694569027761
-8.93776767859483e-06
0.000200418645379139
-1.15186279051823e-05
0.00020976395899886
-1.37809666730051e-05
0.000220676140204872
-1.60323173330258e-05
0.000232882495826747
-1.7880067516442e-05
0.000245642473331941
-1.8625554250863e-05
0.000258734237271716
-1.90362983517036e-05
0.000272703900216913
-2.04882951197659e-05
0.00028593499965558
-1.91491240547403e-05
0.000299988190591375
-2.06202398137097e-05
0.000313834291025581
-2.01092166691805e-05
0.000329758941724489
-2.350780858288e-05
0.00034405255243465
-2.05067521990065e-05
0.000358666721912044
-2.10656108645538e-05
0.000371755958728229
-1.85070692345478e-05
0.000382245693687799
-1.43045640444911e-05
0.000390211318233408
-1.0469976903209e-05
0.000395435331222629
-6.35571632962058e-06
0.000397088397163455
-9.62921542850515e-07
0.000394801784964565
4.78234396818396e-06
0.000387044717412778
1.27368686441398e-05
0.00037337530717254
2.11079630787813e-05
0.000354699508626725
2.77126938867847e-05
0.000329986098198299
3.60705661774547e-05
0.000302664858819993
3.89338759186587e-05
0.000275099914815749
3.86688364541158e-05
0.000250286065097772
3.42426503451323e-05
0.000227897680210299
3.07283079466508e-05
0.000207304970088824
2.82416614795021e-05
0.000188605258431218
2.55423203043346e-05
0.000171393212700564
2.3488863880166e-05
0.000155258888355481
2.20074389231648e-05
0.000139894177845582
2.0971408136278e-05
0.000125300250765084
1.9846899601805e-05
0.000110674460844866
1.99607695133879e-05
9.6644585634314e-05
1.90115681291197e-05
8.22239003594324e-05
1.95693938427791e-05
6.73891875879167e-05
2.00437370057118e-05
5.22688567712418e-05
2.03924907020474e-05
3.78051875291333e-05
1.93032033301973e-05
2.31762271262284e-05
1.95496468234197e-05
9.43000637524923e-06
1.81965930881382e-05
-3.41329573533751e-06
1.70149232128767e-05
-1.41842925398164e-05
1.4097026457683e-05
-2.38844048211951e-05
1.27469690809529e-05
-3.19654043761754e-05
1.05427448008669e-05
-3.87610749796517e-05
8.9133772492063e-06
-4.40584089475012e-05
6.87456866030116e-06
-4.87695160548558e-05
6.17536544858447e-06
-5.26489217482904e-05
5.12823713505108e-06
-5.55062207336582e-05
3.77319531427219e-06
-5.79273198867794e-05
3.23269914224661e-06
-5.99241869797374e-05
2.74002205119203e-06
-6.11728895961101e-05
1.77279976066136e-06
-6.18323399463521e-05
9.85090714160381e-07
-6.21547649338232e-05
6.4346292212782e-07
-6.14544766783028e-05
-7.64948589996417e-07
-6.02733695338892e-05
-1.33950140040973e-06
-5.81927864361683e-05
-2.56525323240112e-06
-5.53586285064057e-05
-3.53821952422909e-06
-5.14863726546204e-05
-4.93847108713792e-06
-4.65343464012281e-05
-6.40640147058058e-06
-4.05147966846269e-05
-7.84572874125889e-06
-3.32054147951414e-05
-9.6346847684052e-06
-2.47195339991458e-05
-1.12363265522206e-05
-1.47897185662906e-05
-1.32607611813828e-05
-3.5033707229894e-06
-1.51337838098006e-05
9.30731828884395e-06
-1.7305720009105e-05
2.33676305004477e-05
-1.90409109559416e-05
3.90435957840976e-05
-2.13743640155917e-05
5.60926017774342e-05
-2.3300331600721e-05
7.47819749049466e-05
-2.57078942950142e-05
9.5136771506225e-05
-2.80417568604306e-05
0.000118265296153217
-3.22821204161347e-05
0.000139701413747404
-2.96660958337287e-05
0.000156476779265955
-2.25995145904008e-05
0.000171104590686466
-1.98312855237542e-05
0.000183823904925433
-1.71622519527254e-05
0.000195095860692115
-1.51608937738736e-05
0.000205040105087702
-1.33250827142328e-05
0.000213873967802759
-1.18153379009836e-05
0.00022163921094706
-1.03382440398681e-05
0.000228509640905686
-9.1301092417473e-06
0.00023453396648085
-7.97263614624947e-06
0.000239844648717113
-7.01131645995478e-06
0.000244526664558215
-6.16874108092105e-06
0.000248610679328849
-5.35400753319044e-06
0.000252207606207077
-4.7084690608369e-06
0.000255364744041863
-4.12283290460727e-06
0.000258111930297993
-3.56830616327653e-06
0.000260547018909761
-3.16585089021002e-06
0.00026268018034765
-2.76289818127582e-06
0.000264543854249043
-2.40470348476291e-06
0.000266175226567047
-2.09988724998145e-06
0.000267612856309952
-1.84830969698747e-06
0.000268879054296025
-1.62519315706448e-06
0.000269992342317518
-1.42390240173843e-06
0.000270977151233137
-1.26183945768354e-06
0.000271809779507635
-1.04983428952184e-06
0.000272580970199073
-9.90121483295108e-07
0.000273241339020066
-8.3523713032767e-07
0.000273832645834873
-7.51592111800221e-07
0.000274336269477627
-6.33329565114836e-07
0.000274793246732833
-5.7757245557915e-07
0.000275227479876398
-5.60885054019766e-07
0.000275569068531261
-4.21119491022365e-07
0.000275887555976138
-4.0368384371097e-07
0.00027617118084778
-3.59138366860198e-07
0.000276425993816723
-3.22996476920572e-07
0.000276654498457027
-2.88164880180134e-07
0.000276864685493192
-2.71615715313272e-07
0.000277017635463767
-1.79567062064082e-07
0.000277225511572065
-2.85872819864258e-07
0.000277338846237272
-1.26663175708456e-07
0.00027749540666465
-2.10306018267944e-07
0.000277626691200461
-1.70158825165177e-07
0.00027774990320997
-1.5930363326789e-07
0.00027786568800786
-1.52518398231432e-07
0.000277981405977015
-1.5193650005502e-07
0.000278123667967756
-1.99609216668249e-07
0.000278218182224221
-1.17334386440888e-07
0.00027833860878271
-1.67185162057663e-07
0.00027849805421761
-2.2026006791636e-07
0.000278674978736958
-2.61529615665408e-07
0.000278836841489998
-1.86270328903214e-07
0.000279293639265496
-7.43270297022348e-07
0.000279111495324802
4.5543440585475e-07
-1.61156067688493e-06
0.000454431502308066
6.0853785622774e-06
0.000447254561545816
1.65945364890084e-05
0.000436039946397297
2.45345554181069e-05
0.000420923825259349
3.18206562584478e-05
0.000403144774885459
3.64169156879581e-05
0.000385356683664167
3.4855545738049e-05
0.000369389724851917
2.99585972415121e-05
0.00035637344461738
2.33175711672999e-05
0.000346839260555261
1.59350404834799e-05
0.000341053714861567
8.23048027839222e-06
0.000339170545659438
1.45085680287727e-07
0.000340652093527505
-6.40237826532906e-06
0.000345818310517361
-1.4103984668455e-05
0.000353724329015513
-1.94246464033394e-05
0.000363971759683302
-2.40283973407865e-05
0.00037637250524367
-2.84330628933997e-05
0.000390586246449344
-3.20938087221106e-05
0.000405786409130054
-3.38257169315825e-05
0.000421665348644613
-3.49152378662603e-05
0.000438599305005884
-3.74222514810294e-05
0.000455126889388075
-3.56767084369306e-05
0.00047253798322351
-3.8031333649143e-05
0.000490053840425729
-3.76250738714038e-05
0.000509894754661945
-4.33487228190964e-05
0.000528789798896687
-3.94017964337481e-05
0.000548348072534639
-4.06238845025061e-05
0.000566798654300513
-3.69576510004228e-05
0.000582885799705264
-3.03917094492414e-05
0.000596302202471434
-2.38863796693825e-05
0.000606603231418877
-1.66567452770627e-05
0.00061276392256952
-7.12361269349298e-06
0.000614059293895791
3.48697264192313e-06
0.00060849106994729
1.83050925926427e-05
0.000595021185366338
3.45778476597284e-05
0.00057397501969723
4.8758859555914e-05
0.000544081549926271
6.59640359484002e-05
0.000508703305278863
7.43121205660553e-05
0.000471028847729247
7.63432940037355e-05
0.000435294043712255
6.99774543621196e-05
0.000402149836492672
6.38725151662223e-05
0.000371338485653869
5.90530123183158e-05
0.000343005187464582
5.38756184936008e-05
0.00031676088471444
4.9733166630299e-05
0.000292094970668007
4.66733529695795e-05
0.000268591541883804
4.4474836920476e-05
0.000246082658946733
4.23557825388726e-05
0.000223637242002389
4.24061864577273e-05
0.000201741467460519
4.09073426710006e-05
0.00017920958229176
4.21012790115337e-05
0.000155775907149921
4.34774121475522e-05
0.000131638131801607
4.45302660503634e-05
0.000107848854814592
4.30924803172223e-05
8.36662098888107e-05
4.37322917492083e-05
6.03255025408683e-05
4.1537300436086e-05
3.83341515204114e-05
3.9006274233337e-05
1.92324750258654e-05
3.31987029522179e-05
2.05977892387842e-06
2.99196651829214e-05
-1.2508403228607e-05
2.51109269533628e-05
-2.47102322462081e-05
2.11152062667947e-05
-3.44385872375995e-05
1.66029236517213e-05
-4.28978323450633e-05
1.46346105560251e-05
-4.96894714570025e-05
1.19198762470039e-05
-5.46664294434548e-05
8.7501533007402e-06
-5.8717138079172e-05
7.28340777797403e-06
-6.17678567957415e-05
5.79074076776899e-06
-6.3403038961564e-05
3.40798192647997e-06
-6.39945196768374e-05
1.57657142943571e-06
-6.36878758004498e-05
3.36819045743508e-07
-6.1736731102885e-05
-2.71609328757309e-06
-5.88233254923933e-05
-4.25290701089067e-06
-5.44736651190015e-05
-6.91491360579236e-06
-4.88348229725528e-05
-9.17706167066772e-06
-4.15741456535684e-05
-1.21991484061142e-05
-3.26978845148756e-05
-1.52826626092746e-05
-2.22279391230127e-05
-1.8315674133122e-05
-9.96195322155441e-06
-2.19006706698594e-05
3.97071131769707e-06
-2.51689910914693e-05
1.98120365977041e-05
-2.91020864613882e-05
3.74690735113722e-05
-3.27908207234671e-05
5.702324255868e-05
-3.68598890564114e-05
7.82124581646287e-05
-4.02301265618897e-05
0.000101319384092292
-4.44812899432553e-05
0.000126157413723657
-4.81383612320862e-05
0.000152873094669097
-5.24235752404536e-05
0.000181616680931613
-5.6785343122946e-05
0.000213263816109172
-6.39292555936935e-05
0.000243505469760695
-5.99077494852519e-05
0.000269016174644331
-4.81102194740364e-05
0.000291483368038609
-4.22984789180319e-05
0.000311391384051341
-3.70702679654575e-05
0.000329260579593574
-3.3030089316107e-05
0.000345273755836513
-2.93382589571716e-05
0.000359670198230264
-2.6211780294734e-05
0.000372542243886448
-2.32102896960518e-05
0.00038407612959412
-2.06639949494193e-05
0.000394360407726264
-1.8256914278393e-05
0.000403548299169084
-1.61992079027748e-05
0.000411754468450075
-1.4374910361912e-05
0.000419044269383963
-1.26438084670779e-05
0.000425544392921142
-1.1208592598015e-05
0.000431330604363516
-9.90904434698219e-06
0.000436460792233207
-8.6984940329673e-06
0.000441045642060176
-7.75070071717845e-06
0.000445124890697814
-6.84214681891413e-06
0.000448749239719195
-6.02905250614406e-06
0.000451970604565214
-5.32125209600027e-06
0.000454843331873297
-4.72103700507023e-06
0.000457406197308363
-4.18805859212814e-06
0.000459693278946071
-3.71098403944712e-06
0.000461737785315635
-3.30634582724749e-06
0.00046353373890072
-2.84578787460652e-06
0.000465168116063493
-2.6244986460664e-06
0.000466615110177213
-2.2822312440475e-06
0.00046791771936736
-2.05420130194742e-06
0.000469067358946142
-1.78296914389565e-06
0.000470108722867739
-1.61893637717559e-06
0.000471070658846237
-1.52282103251785e-06
0.00047190087551466
-1.25133615944496e-06
0.000472658648081283
-1.16145641033301e-06
0.000473341660017121
-1.04215030269828e-06
0.000473960921713969
-9.42258173768426e-07
0.000474523836628965
-8.51079795174947e-07
0.000475037231259494
-7.85010345842318e-07
0.000475474340467287
-6.16676269855634e-07
0.000475930299115646
-7.41831468223818e-07
0.000476285793310158
-4.82157370219495e-07
0.000476655580290372
-5.80092998481615e-07
0.000476987013117495
-5.01591652287856e-07
0.000477297352503808
-4.69643019580205e-07
0.000477586324656327
-4.41490550749416e-07
0.000477865009390574
-4.30621234301279e-07
0.000478157398769895
-4.91998595988725e-07
0.000478402590461866
-3.62526078412285e-07
0.000478659747618294
-4.2434231848518e-07
0.000478954285649485
-5.14798099106969e-07
0.00047925747521447
-5.64719180647726e-07
0.000479580043595484
-5.0883870991867e-07
0.000480127981305128
-1.29120800666674e-06
0.000480219282081719
3.64133629265558e-07
-2.64583742043646e-06
0.000629961235587247
8.47757324257639e-06
0.000623381434023511
2.31743380527443e-05
0.000612575132768722
3.53408566728955e-05
0.000597351936206769
4.70438528204014e-05
0.000578645567466956
5.51232844277731e-05
0.000558805362889026
5.46957503159737e-05
0.000539788556609471
4.8975403521066e-05
0.000523074491392992
4.00316363837735e-05
0.000509567877928799
2.94416539476652e-05
0.000499824468822277
1.79738893849181e-05
0.000494142206147396
5.82734835516343e-06
0.000492162918045699
-4.42309016362519e-06
0.000494190335817304
-1.61314024400544e-05
0.000499467570488897
-2.470188107493e-05
0.000507599634089171
-3.2160460941063e-05
0.00051833729165999
-3.91707204642163e-05
0.000531335630735344
-4.50921477974579e-05
0.000545828243615459
-4.83183298116966e-05
0.000561439775522217
-5.05267697730163e-05
0.000578403669903558
-5.43861458623716e-05
0.000595475403721344
-5.27484422547137e-05
0.000613632761464973
-5.61886913927708e-05
0.00063225219726254
-5.62445096689708e-05
0.000653335582663368
-6.44321082199256e-05
0.000674309394329601
-6.03756080999819e-05
0.000696457563181712
-6.2772053354617e-05
0.000718319681099778
-5.88197689184893e-05
0.000738661303014485
-5.07333313639486e-05
0.000756923457786732
-4.21485344416256e-05
0.000772487734920959
-3.22210224112837e-05
0.000784216174621134
-1.88520523936693e-05
0.000791176853172319
-3.47370590927354e-06
0.000791177951904204
1.8303993860766e-05
0.000782672499680633
4.30832998833027e-05
0.00076535857216735
6.60727870691864e-05
0.000737522553265235
9.38000548505202e-05
0.000701780559666871
0.000110054114164409
0.000661180475848453
0.00011694337782217
0.000620402116285937
0.00011075581392463
0.000581055529763015
0.000103219101689138
0.000543618982609242
9.64895594721171e-05
0.000508545972776499
8.89486283263426e-05
0.000475642726750865
8.26364126559384e-05
0.00044448764820563
7.78284315148082e-05
0.000414660958910409
7.43015262157147e-05
0.000385903350254065
7.11133911952035e-05
0.000357275324509339
7.10342122024413e-05
0.000329071180096176
6.91114870841544e-05
0.000300058483012076
7.11139760956419e-05
0.000269780156236906
7.37557389227239e-05
0.000238369194093778
7.59412281935028e-05
0.000206793988808406
7.46676856025974e-05
0.000174506620442659
7.60196601149548e-05
0.000142741600715678
7.33023201630577e-05
0.000112421723910336
6.9326151038675e-05
8.53025386881247e-05
6.03178881744424e-05
6.07833660137672e-05
5.44388378572869e-05
3.96019074482252e-05
4.62923855189017e-05
2.17440135610505e-05
3.89731001539632e-05
7.23560675095054e-06
3.11113304618252e-05
-5.23509280538449e-06
2.71053101123543e-05
-1.52062772646826e-05
2.18910607063112e-05
-2.25779066627481e-05
1.61217826988037e-05
-2.84419182334258e-05
1.31474193486513e-05
-3.27092050234666e-05
1.00580275578026e-05
-3.4917577446092e-05
5.6163543491089e-06
-3.5653273410043e-05
2.31226739339483e-06
-3.49967739374934e-05
-3.19680426805452e-07
-3.22641890771182e-05
-5.44867814795705e-06
-2.81886786317957e-05
-8.32841745620259e-06
-2.23721608537952e-05
-1.27314313837965e-05
-1.49555289870865e-05
-1.65936935373757e-05
-5.64636029467622e-06
-2.15083170985233e-05
5.51703944875521e-06
-2.64460623527108e-05
1.84822707242888e-05
-3.12809054086547e-05
3.34020299599305e-05
-3.68204299055019e-05
5.01625242994794e-05
-4.19294854310192e-05
6.89369070726563e-05
-4.78764692345653e-05
8.96755345214867e-05
-5.35294481722989e-05
0.000112395394643552
-5.9579749178477e-05
0.00013689749527055
-6.47322271888885e-05
0.000163355806571657
-7.09396012443624e-05
0.000191676061626132
-7.64586162865612e-05
0.000221903940531138
-8.26514541454598e-05
0.000254205094249853
-8.9086496841662e-05
0.000289271989878985
-9.89961512228255e-05
0.000323699317539584
-9.43350771458503e-05
0.000354292797539724
-7.87036994741764e-05
0.000381804202853677
-6.98098842319853e-05
0.000406672792452408
-6.19388575641892e-05
0.000429303586103073
-5.56608829667723e-05
0.000449896221136054
-4.99308939901519e-05
0.000468670015837938
-4.4985574996618e-05
0.000485736451931022
-4.02767257891359e-05
0.000501263010354373
-3.61905533727708e-05
0.000515350437016785
-3.23443409408043e-05
0.000528140270264145
-2.89890411501354e-05
0.000539750756380388
-2.59853964781553e-05
0.000550259609829163
-2.31526619158529e-05
0.000559786071033897
-2.07350538027487e-05
0.000568415809147704
-1.85387824607897e-05
0.000576216823478473
-1.64995083637364e-05
0.000583295122182571
-1.48289994212763e-05
0.00058970725236069
-1.32542769970329e-05
0.00059551242182241
-1.18342219678644e-05
0.000600768949544926
-1.05777798185161e-05
0.000605537167687059
-9.48925514720333e-06
0.000609865129779218
-8.51602068428593e-06
0.000613796045745855
-7.64190000608481e-06
0.000617371010422391
-6.88131050378428e-06
0.000620598530879819
-6.07330833203373e-06
0.000623556165384362
-5.58213315060972e-06
0.000626239796637432
-4.9658624971178e-06
0.000628692379895441
-4.50678455995605e-06
0.000630917218870079
-4.00780811853454e-06
0.000632956365288785
-3.65808279588143e-06
0.000634843549048568
-3.41000479230041e-06
0.000636547615759879
-2.95540287075685e-06
0.000638117182478154
-2.73102312860799e-06
0.000639558282821512
-2.48325064605624e-06
0.000640885707133185
-2.26968248544135e-06
0.000642111106091033
-2.07647875302282e-06
0.00064324511714427
-1.91902139907926e-06
0.000644269845433928
-1.64140455951184e-06
0.00064526329348953
-1.73527952382711e-06
0.000646139690175331
-1.35855405602172e-06
0.000646987256299551
-1.42765912270117e-06
0.000647771714392238
-1.28604974497476e-06
0.000648509200834718
-1.2071294620603e-06
0.000649201601207714
-1.1338909237455e-06
0.000649859829921708
-1.08884994829542e-06
0.000650506747189073
-1.13891586335337e-06
0.000651098424436743
-9.54203326082619e-07
0.000651678122371297
-1.00404025304001e-06
0.000652273293921523
-1.10996964933169e-06
0.000652863041543754
-1.15446680287668e-06
0.000653464652319576
-1.11044948574297e-06
0.0006542323477884
-2.05890347549085e-06
0.00065470054158448
-1.04060166814016e-07
-3.74310539482203e-06
0.000776217786097666
1.04163796839141e-05
0.000770610728796574
2.8781395353836e-05
0.000761029362759815
4.49222227096575e-05
0.000747074932107603
6.09982834726127e-05
0.000729281484686282
7.29167318490938e-05
0.000709472417418252
7.4504817584006e-05
0.00068939481834192
6.90530025973998e-05
0.000670578318065653
5.88481366600407e-05
0.00065414841265868
4.58715593546341e-05
0.000640921495061296
3.12008069823006e-05
0.000631436581515844
1.53122619006164e-05
0.000625597274790372
1.41621656184762e-06
0.000623766331871022
-1.43004595207054e-05
0.000625419247159387
-2.63547963632963e-05
0.000630247202856931
-3.69884166386078e-05
0.00063801839313796
-4.69419107452463e-05
0.000648420497895296
-5.5494252554793e-05
0.000660770210432197
-6.06680423485982e-05
0.00067467010170263
-6.442666104345e-05
0.000690246971539988
-6.99630156997307e-05
0.000706448146241785
-6.89496169565097e-05
0.000723989706830213
-7.37302519811994e-05
0.000742383049718505
-7.4637852557264e-05
0.00076334481404701
-8.53938725484302e-05
0.00078491389982005
-8.19446938730232e-05
0.000808086880222878
-8.59450337574442e-05
0.000831753935353921
-8.24868240495314e-05
0.000854783371222888
-7.37627672329182e-05
0.000876530296520556
-6.38954597392903e-05
0.000896330864854425
-5.20215907451497e-05
0.000913040001675696
-3.55611892149323e-05
0.000925683056103354
-1.61167603369292e-05
0.000932120633463992
1.18664165001217e-05
0.000930517821556372
4.46861117909222e-05
0.000920129597390187
7.64610112353819e-05
0.000898829879912995
0.000115099772327713
0.000868225849978334
0.000140658144099069
0.000830597267306825
0.000154571960493683
0.000790270992428729
0.000151082088802725
0.000749341513096014
0.00014414858102185
0.00070894042400548
0.000136890648562627
0.000669964061888235
0.00012792499044359
0.00063257459041064
0.000120025884133531
0.000596606549226566
0.000113796472698869
0.000561777293270515
0.000109130782171777
0.000527874992814463
0.000105015691651271
0.000494057836716797
0.000104851368300121
0.000460506586387581
0.000102662737413382
0.000426070283094931
0.000105550279388281
0.000390191248312517
0.000109634773705136
0.000352882198142251
0.000113250278363766
0.000314963618452349
0.000112586265292489
0.000276071121981296
0.000114912156586011
0.000237340273445025
0.000112033168699325
0.000199907476992301
0.000106758947491397
0.000165645318595022
9.45800465717283e-05
0.000134410356574716
8.56737998775804e-05
0.000106970736258596
7.3732005835016e-05
8.35298616250632e-05
6.24139747874816e-05
6.41262436991718e-05
5.05149483877284e-05
4.75136659442885e-05
4.37178878672251e-05
3.40177243176953e-05
3.53870023329152e-05
2.37476451845548e-05
2.63918618319452e-05
1.55807274037034e-05
2.13143371295069e-05
9.45888624560468e-06
1.61798687159062e-05
5.85459223580402e-06
9.22064835890678e-06
4.1110946010276e-06
4.0557650281733e-06
4.08975950840031e-06
-2.98345334181142e-07
6.39821177229486e-06
-7.75713041185802e-06
1.03782638908714e-05
-1.23084695747751e-05
1.62869896380017e-05
-1.8640157130928e-05
2.4023022608376e-05
-2.4329726507746e-05
3.38155076197624e-05
-3.13008021099079e-05
4.56474109290302e-05
-3.82779656619769e-05
5.94499713241969e-05
-4.50834658038219e-05
7.53368175373276e-05
-5.27072761186329e-05
9.32223188092409e-05
-5.98149867029331e-05
0.000113226304353392
-6.78804547787169e-05
0.00013533286879442
-7.5636012613327e-05
0.000159529337951952
-8.37762183360098e-05
0.000185655943161649
-9.08588323985846e-05
0.000213813320569923
-9.90969786526371e-05
0.000243955754408617
-0.000106601050125255
0.000276070625452229
-0.000114766325189072
0.000310305589906224
-0.000123321461295657
0.000347213629640935
-0.000135904190957537
0.000383965465032515
-0.000131086912537431
0.000417547398449364
-0.000112285632891026
0.000448190769626254
-0.000100453255408875
0.000476244779234904
-8.99928671728388e-05
0.000502001750251877
-8.14178539837458e-05
0.000525659300419403
-7.35884441576782e-05
0.000547418758890721
-6.67450334679364e-05
0.000567401420315945
-6.02593872143595e-05
0.000585761626063984
-5.45507591208098e-05
0.000602606269721015
-4.91889845978358e-05
0.000618066666291284
-4.44494377204042e-05
0.000632259439862297
-4.01781700491678e-05
0.000645266683508546
-3.61599055621022e-05
0.00065719894075224
-3.26673110464423e-05
0.000668143706395076
-2.9483548103626e-05
0.000678171218302664
-2.65270202713242e-05
0.000687379451740954
-2.40372328595663e-05
0.000695831238285444
-2.17060635415226e-05
0.000703587113693045
-1.95900973754658e-05
0.000710706338930466
-1.76970050559369e-05
0.000717249479103712
-1.60323953204486e-05
0.000723267027385971
-1.45335689665445e-05
0.000728805175641598
-1.31800482617123e-05
0.000733907712957048
-1.1983847819234e-05
0.000738591810117495
-1.07574054924804e-05
0.000742925836287204
-9.91615932031881e-06
0.000746919007106835
-8.9590333167484e-06
0.000750612215120099
-8.19999257321917e-06
0.000754016914240508
-7.41250723894395e-06
0.000757171946184564
-6.81311473993708e-06
0.000760112808457514
-6.35086706524944e-06
0.000762823242090486
-5.66583650372944e-06
0.000765344345123439
-5.25212616156087e-06
0.000767688234593256
-4.82714011587265e-06
0.000769871317015785
-4.45276490797057e-06
0.000771908155550615
-4.11331728785243e-06
0.000773812305007169
-3.82317085563216e-06
0.000775572948587654
-3.40204813999644e-06
0.000777254897880339
-3.41722881651272e-06
0.000778797546589533
-2.90120276521473e-06
0.00078026927894841