/*--------------------------------*- C++ -*----------------------------------*\
| =========                 |                                                 |
| \\      /  F ield         | OpenFOAM: The Open Source CFD Toolbox           |
|  \\    /   O peration     | Version:  v2006                                 |
|   \\  /    A nd           | Website:  www.openfoam.com                      |
|    \\/     M anipulation  |                                                 |
\*---------------------------------------------------------------------------*/
FoamFile
{
    version     2.0;
    format      ascii;
    class       volSymmTensorField;
    location    "7000";
    object      turbulenceProperties:R;
}
// * * * * * * * * * * * * * * * * * * * * * * * * * * * * * * * * * * * * * //

dimensions      [0 2 -2 0 0 0 0];


internalField   nonuniform List<symmTensor> 
14000
(
(8.20284843509057e-05 -2.50748678271431e-06 -0 8.2022607204521e-05 -1.00225604898494e-27 8.20255715718933e-05)
(7.85443109633182e-05 -2.36056179851732e-06 -0 7.8531153259002e-05 9.62271016024111e-28 7.85383202148458e-05)
(7.18034926703368e-05 -2.08274506259918e-06 -0 7.17869813041698e-05 -0 7.17954424100174e-05)
(6.41419940265608e-05 -1.77417263133613e-06 -0 6.41244430278338e-05 -0 6.41334850151254e-05)
(5.57402433057393e-05 -1.45126272154729e-06 8.09771801832688e-29 5.57187110957665e-05 -9.29996098896694e-26 5.5729840992865e-05)
(4.82232979490839e-05 -1.17622256998931e-06 8.4781897768076e-26 4.81917322609318e-05 4.68899794110606e-28 4.8207808113257e-05)
(4.26920637584018e-05 -9.81408188153266e-07 -1.81159230091766e-25 4.26458649053975e-05 -1.80689619127728e-25 4.26693120054881e-05)
(3.89366117718372e-05 -8.52381883626937e-07 -6.83355100531187e-26 3.88716521014627e-05 4.05665058640724e-27 3.89045347357399e-05)
(3.68083749531713e-05 -7.77853505907753e-07 -2.77482006810435e-25 3.67195537600461e-05 -6.80183509200668e-27 3.67644168760555e-05)
(3.60697564811473e-05 -7.46291408048209e-07 -2.840328781368e-26 3.59496137859554e-05 7.43207801043687e-25 3.6010245644028e-05)
(3.69446451027576e-05 -7.61662151755397e-07 8.4020365345674e-25 3.67792616186421e-05 1.28853533698842e-26 3.68625448544047e-05)
(3.90863724199255e-05 -8.13291782852828e-07 -6.02245845072268e-25 3.88574930709555e-05 8.43124790323036e-24 3.8972706693368e-05)
(4.28823474632522e-05 -9.12636254992273e-07 -6.39133196838755e-25 4.25577371853407e-05 -1.60337511708816e-26 4.27208146009293e-05)
(4.85226918204751e-05 -1.06737441469927e-06 1.40296954581893e-24 4.80552330853446e-05 3.69184511351376e-26 4.82898400410583e-05)
(5.57440563881907e-05 -1.27221474393294e-06 -4.60408211893715e-24 5.5071344548374e-05 2.29229133439242e-23 5.54085273823213e-05)
(6.50937655837764e-05 -1.54527095520478e-06 6.04343130206232e-25 6.41227319923371e-05 5.08926012997985e-24 6.46088206900501e-05)
(7.7093525534854e-05 -1.90529223879814e-06 5.31325488647283e-24 7.56898298848609e-05 5.77706418774152e-24 7.63916409882291e-05)
(9.20105556535387e-05 -2.36292513788671e-06 1.45986124914665e-23 8.99963713686538e-05 -6.89473428928256e-23 9.10021837452315e-05)
(0.000109165563139778 -2.89077427754795e-06 6.38648110501228e-24 0.000106345876277936 -3.45332706856522e-23 0.000107752793445474)
(0.000131255715477311 -3.57720330242728e-06 2.6493834015792e-23 0.000127291165522568 -7.37460749008457e-23 0.000129266501718828)
(0.000156462210681556 -4.35377636182798e-06 -1.65560999670783e-23 0.000151045545304255 7.57296932131395e-23 0.000153742980514961)
(0.000187517608687628 -5.30124968128999e-06 -1.70490245044206e-24 0.000180147237290901 -9.32166945403948e-27 0.000183812787118727)
(0.000223857088997008 -6.39362046017378e-06 -2.09404283222437e-23 0.000214030138910753 6.96272984587758e-23 0.000218914926319455)
(0.000272241127573172 -7.86444142995138e-06 -2.73459784565697e-23 0.000258938383364046 5.97365645231476e-23 0.00026554136726573)
(0.000329215221747692 -9.64215743846988e-06 -3.67280391545652e-24 0.000311633705367147 5.09066881119922e-27 0.000320355538242455)
(0.000393545405746872 -1.16706326983026e-05 -1.97433218944032e-25 0.000370921684223599 4.08497127684277e-25 0.000382134399704194)
(0.000468211823726155 -1.41788968083767e-05 4.29666150945557e-24 0.000439690218144122 -1.08933282135394e-25 0.00045381699635772)
(0.000543623414149826 -1.69011799996236e-05 -4.9988003526197e-23 0.000509275847661331 9.73338117965529e-23 0.000526281699916709)
(0.000615469767081059 -1.97392411953248e-05 -1.84327233280503e-22 0.000575985490950083 -3.25460340886034e-23 0.000595530299997024)
(0.000682415875215897 -2.27172902316633e-05 -5.78883248352043e-23 0.000638848285779056 -3.32038884625929e-22 0.000660411850374108)
(0.000736281074031546 -2.55263742978406e-05 3.37204531612679e-23 0.000690598666217154 -1.74574550840795e-24 0.00071321077611944)
(0.000770536267569408 -2.77863591248303e-05 2.31815631926626e-22 0.000725295297867585 -1.57216488222465e-23 0.000747692685242787)
(0.000777724745889602 -2.89969951150104e-05 1.85499811531717e-22 0.000735921709897161 -6.30246664705089e-22 0.000756623956704137)
(0.000746935261047629 -2.83351186635898e-05 -0 0.000711703389633986 -0 0.000729161658828485)
(0.000689428902206023 -2.61284293644674e-05 -0 0.00066206964112423 -0 0.000675632650899946)
(0.000603693045644647 -2.23052319467459e-05 -5.37241881234639e-27 0.000584663715641005 4.24399227877403e-28 0.000594105334566634)
(0.000503149039539056 -1.7624051049325e-05 5.97280466954983e-27 0.000491257348072231 -1.20741173641924e-25 0.000497161564240729)
(0.000408075043228887 -1.3279069133312e-05 8.37190048673394e-27 0.000401270776688108 -2.76789114868125e-27 0.000404651943108121)
(0.000329263959559324 -9.8501908500658e-06 7.35304418145876e-28 0.000325624130313172 7.9804790579844e-26 0.000327433284243676)
(0.000268085210742329 -7.36011467931588e-06 -4.46720130302037e-27 0.000266318914735575 3.60454548986317e-28 0.000267196676030351)
(0.000216367517428276 -5.41947597629236e-06 -2.02454427182233e-24 0.00021571420864343 -1.07657413923315e-25 0.000216038333757115)
(0.000173466695983393 -3.94492407208673e-06 -4.09734270050753e-25 0.000173426433476411 4.70234430121883e-25 0.000173445286859083)
(0.000138498640961213 -2.85008380362349e-06 -7.93414795987571e-25 0.000138763856377548 -8.44465391298326e-24 0.000138630561954464)
(0.000109549226950813 -2.02994020387233e-06 -1.03353849192375e-24 0.000109935367072381 -1.33089233438268e-23 0.000109741754129748)
(8.50557428092482e-05 -1.40674108166427e-06 4.66710878212431e-24 8.54530469790883e-05 2.01876081296998e-23 8.52539060960675e-05)
(6.54057855177963e-05 -9.59746734157842e-07 -1.60449135332423e-24 6.57600487469007e-05 -5.38904797428564e-24 6.55823255732854e-05)
(4.87811734497984e-05 -6.25432201155224e-07 -9.17926735286416e-25 4.90642539945609e-05 -1.13417806978073e-23 4.89221611667412e-05)
(3.55081623367635e-05 -3.91909179552136e-07 7.28421111669277e-25 3.57160865114418e-05 -6.13093673147094e-24 3.56115252694211e-05)
(2.51023024985099e-05 -2.33598984974657e-07 -4.34314573462895e-25 2.52437940780782e-05 3.53663957956865e-26 2.51725347821079e-05)
(1.67764880824367e-05 -1.26609135323254e-07 2.73372358612456e-25 1.68621837104348e-05 -2.20165721461497e-26 1.68188890927619e-05)
(1.04904051969313e-05 -6.02920615247017e-08 4.1565600499089e-26 1.05352855513794e-05 -1.80323866973914e-24 1.05125176399885e-05)
(6.45149654851555e-06 -2.6250616142031e-08 5.04373686777061e-25 6.47265332814155e-06 2.67115081405591e-24 6.46182904719422e-06)
(3.88494312422245e-06 -9.48469037006612e-09 -6.65935830697581e-25 3.89309326178645e-06 -2.2138613957631e-24 3.88885753530369e-06)
(5.0791808037855e-06 -4.53692339332724e-09 -3.54391505755538e-25 5.08320073358213e-06 -1.1156276414542e-24 5.08094796093093e-06)
(7.11782710377249e-06 3.81803318583162e-09 1.58281512089192e-24 7.11376817853116e-06 5.11419494552236e-24 7.11544262609335e-06)
(9.29383703135185e-06 1.62372038167741e-08 -2.61280555722832e-25 9.27691471032412e-06 -1.53708195702114e-24 9.28486724731322e-06)
(1.12990553076964e-05 3.12206639193056e-08 5.2595220716079e-25 1.12655223821329e-05 -3.01279587081343e-26 1.12816684797833e-05)
(1.32377338393878e-05 4.83611522776631e-08 1.04404470994779e-24 1.31846209705651e-05 5.23676337503209e-24 1.32104108277381e-05)
(1.4793243804453e-05 6.47833213297483e-08 2.23672610247441e-24 1.47208362852938e-05 1.43315618690258e-23 1.47561901784603e-05)
(1.59647526277423e-05 7.92061052815162e-08 1.16163540130486e-24 1.58754551145123e-05 4.44902386094198e-24 1.59191614723914e-05)
(1.67087130974572e-05 9.06925864180113e-08 -4.05679252527495e-24 1.66055647453441e-05 -1.49912034498945e-23 1.66561676929919e-05)
(1.75038786652358e-05 1.02960335019179e-07 4.66582028064066e-24 1.73868068372077e-05 1.53392006143931e-23 1.7444322043081e-05)
(1.7886637536659e-05 1.11209006047613e-07 -1.88197628331374e-24 1.776138936566e-05 -4.20704808758156e-24 1.78229750748682e-05)
(1.8048131971358e-05 1.17161744369583e-07 -6.25218236813201e-25 1.79175547104327e-05 4.2660995679626e-26 1.7981809212738e-05)
(1.8227247483661e-05 1.23142962182783e-07 1.68570185937151e-28 1.80921744746351e-05 2.08106580890982e-27 1.81586813946853e-05)
(1.83160866820686e-05 1.27773265045666e-07 8.28812800765933e-24 1.8179564098097e-05 2.80599115202266e-23 1.8246808309193e-05)
(1.81326215235958e-05 1.28934280206957e-07 -8.79802457169437e-25 1.79988499193506e-05 -1.79344411843773e-24 1.80647395292266e-05)
(1.80360449394038e-05 1.30675406740462e-07 1.93526538959163e-24 1.79048173646473e-05 6.33369948971603e-24 1.79694851878188e-05)
(1.77916808670208e-05 1.29875337652684e-07 9.63228357220312e-26 1.76670443535146e-05 4.5234691403559e-24 1.77284333190496e-05)
(1.73675638518136e-05 1.26384986893739e-07 1.03911262217182e-24 1.72516993855829e-05 2.9975240110503e-24 1.73087812568319e-05)
(1.69110584418462e-05 1.2169093657474e-07 1.30887968237658e-24 1.68054360044661e-05 3.69663642671686e-24 1.68574399402889e-05)
(1.62718951658902e-05 1.14107134102845e-07 1.05104848935649e-24 1.61786241650951e-05 4.56239170950916e-24 1.62245383213713e-05)
(1.55866857522602e-05 1.05148450625543e-07 2.91742549375697e-27 1.55066130668353e-05 1.04482258109365e-26 1.55460023934231e-05)
(1.46950675630564e-05 9.3079573874714e-08 -1.55331229035289e-25 1.46296465590544e-05 9.3597315560102e-28 1.46618007523903e-05)
(1.37288637343623e-05 7.97421939888015e-08 -2.30353437743806e-25 1.36776368609228e-05 -2.19306509276375e-24 1.37027913661745e-05)
(1.26288683729672e-05 6.46468261165059e-08 5.12412023822035e-25 1.25915527400289e-05 1.77475203290331e-24 1.26098399541521e-05)
(1.14586389460272e-05 4.90602863609291e-08 3.48141030148862e-25 1.1433682495197e-05 3.37749009282183e-24 1.14458893890394e-05)
(1.02373586763141e-05 3.34049166394314e-08 -8.80032176955206e-26 1.02230475329148e-05 2.96208373571169e-27 1.02300083613474e-05)
(9.00475375200099e-06 1.86167539986636e-08 2.11256189452881e-26 8.9987753515192e-06 2.90064498165379e-27 9.00165159607561e-06)
(7.77896585725477e-06 5.12581932423105e-09 -1.65830340606777e-26 7.77903411719302e-06 -1.00192876609434e-25 7.77893838580941e-06)
(6.63437920578754e-06 -6.07768508949867e-09 -2.30523431003324e-26 6.63809377542324e-06 2.5726473258219e-27 6.6362289045891e-06)
(5.99231593943232e-06 -1.62001013527231e-08 -7.71389424327059e-27 5.99821196372978e-06 -9.51145991376259e-26 5.99527942846778e-06)
(8.21726713980895e-06 -3.83761624379629e-08 7.84236721008425e-27 8.2273856776201e-06 -3.15985030566762e-26 8.22240001816535e-06)
(1.13681053955276e-05 -7.80959691974645e-08 6.0230249602997e-26 1.13827919094434e-05 -4.72294810155361e-27 1.13755675563756e-05)
(1.55637390361711e-05 -1.43246744715862e-07 5.25695996525839e-28 1.55812883959525e-05 5.79760459196872e-27 1.55727752463121e-05)
(2.18916155307539e-05 -2.61083573097581e-07 -2.19376362126986e-26 2.19080998441349e-05 -3.50961744480852e-27 2.19001288764217e-05)
(3.00853831158958e-05 -4.46745366347662e-07 -3.11669013374067e-27 3.00976084597907e-05 2.70919540179693e-27 3.00918380876131e-05)
(3.68483424187506e-05 -6.31515869396269e-07 4.29385455969146e-27 3.6859533398854e-05 -3.69238915472866e-27 3.6854456726392e-05)
(4.25473336632405e-05 -8.06701088103207e-07 8.43006748048471e-28 4.25582917403854e-05 -3.97365659329777e-28 4.25530972659081e-05)
(4.81712190282215e-05 -9.9201386973499e-07 -2.97558087173962e-27 4.81821177326176e-05 3.31259954770409e-27 4.81770367105281e-05)
(5.33120982018717e-05 -1.17379782821016e-06 3.53367006299997e-27 5.33226194522093e-05 -7.78066177705445e-27 5.33176473553835e-05)
(5.80436881499104e-05 -1.35068585181411e-06 -3.70224256649288e-27 5.80538419667892e-05 1.28422258357166e-26 5.80490421412796e-05)
(6.2394451170291e-05 -1.52113972285178e-06 2.12414483893246e-27 6.240392355267e-05 -2.21738565754728e-27 6.23994109597962e-05)
(6.63168261091759e-05 -1.68143727136636e-06 -2.26254041409877e-27 6.63257329520442e-05 -2.70862318212268e-27 6.63214936472383e-05)
(6.98310445758488e-05 -1.83040364396412e-06 -1.73449815023698e-29 6.98391977464541e-05 4.72368306102811e-27 6.9835288063579e-05)
(7.29621328948734e-05 -1.96741728837949e-06 -2.93985814632744e-27 7.29696741141669e-05 -3.14239428447887e-27 7.29660581161917e-05)
(7.57122345303927e-05 -2.09137283429923e-06 -2.35387455049832e-28 7.57190682764823e-05 -9.63352102341515e-29 7.57157796222969e-05)
(7.8167678453646e-05 -2.20461284423777e-06 -6.27208598493576e-29 7.81737630663096e-05 -1.10263217345681e-28 7.81708234638803e-05)
(8.02994170227356e-05 -2.30540611749777e-06 -3.08804578732386e-28 8.03049916098766e-05 -2.34046365681289e-27 8.03023015850158e-05)
(8.2143859660887e-05 -2.39459214578568e-06 7.19400394753214e-27 8.2148859811166e-05 -3.93521874004475e-27 8.21464358894369e-05)
(8.37767716157742e-05 -2.47481778472898e-06 -3.34569493159826e-27 8.37812503963145e-05 6.25170259484857e-27 8.37790729770173e-05)
(8.51614805071925e-05 -2.5444059260698e-06 -1.74593175034479e-28 8.51656264533523e-05 -6.24813487570645e-28 8.51636175343412e-05)
(8.63661163965012e-05 -2.60590613139314e-06 -8.87778166446003e-32 8.63697736708916e-05 -2.44780597513593e-27 8.63679882557433e-05)
(8.74271339793098e-05 -2.6607411081331e-06 3.17393143605836e-29 8.74304109438725e-05 -1.08250477883527e-30 8.74288165506777e-05)
(8.83249934566546e-05 -2.70810102104659e-06 2.66626470035399e-29 8.83279842780839e-05 4.38151946454417e-28 8.83265260991974e-05)
(8.90875201644832e-05 -2.74905838199896e-06 -1.9495449934126e-27 8.90902830260058e-05 -3.82594556043057e-29 8.9088934683515e-05)
(8.97436361051148e-05 -2.78482193116179e-06 -2.05318206787783e-27 8.97461479093015e-05 3.25687354698982e-28 8.97449219638657e-05)
(9.03159489801584e-05 -2.81639223673768e-06 -5.12617683450922e-29 9.03182271796292e-05 1.55931059513081e-30 9.03171126872184e-05)
(9.07941261126098e-05 -2.84336101706201e-06 2.159451344167e-29 9.07962137451689e-05 1.37272757732256e-27 9.07951993025512e-05)
(9.12257156540729e-05 -2.86779250924587e-06 -4.07645567634788e-29 9.12275951790799e-05 -1.07309661031379e-27 9.12266675737031e-05)
(9.15487225224408e-05 -2.88705805620908e-06 4.21796725223279e-27 9.15506654822157e-05 5.4867283080158e-29 9.15497286688854e-05)
(9.18424293870195e-05 -2.90457340902101e-06 7.75331634006622e-29 9.18441179446933e-05 -6.21380742882735e-28 9.18432799364412e-05)
(9.21024597638665e-05 -2.92018439196498e-06 -4.17226515477597e-30 9.21041199886871e-05 1.45988825104957e-29 9.21033168311145e-05)
(9.23104787221898e-05 -2.93321413862852e-06 -1.0076144308548e-28 9.23120126704992e-05 1.60134444443201e-27 9.23112573946391e-05)
(9.24835457816815e-05 -2.94435342009578e-06 4.34358590908446e-27 9.24851106309521e-05 -1.90173803502841e-27 9.24843460333443e-05)
(9.26067563905666e-05 -2.95300657606869e-06 -8.5238280692566e-27 9.26082522565615e-05 1.41745781306742e-27 9.26075250726159e-05)
(9.276586582307e-05 -2.96291355575117e-06 -2.18021342804228e-27 9.27671180202988e-05 -4.87314448762522e-28 9.27664941949231e-05)
(9.28694110849541e-05 -2.97019287811653e-06 -2.23434306671378e-27 9.28707855332275e-05 2.07657197950783e-27 9.28701240881684e-05)
(9.29327710724726e-05 -2.97550577850401e-06 2.11841870591854e-27 9.29340943674074e-05 -1.25737246906536e-27 9.2933438810062e-05)
(9.30056677734624e-05 -2.9809531118612e-06 4.97790919898463e-29 9.30069716698402e-05 -1.98901545434018e-29 9.30063349100134e-05)
(9.3068705801111e-05 -2.98581768628095e-06 -6.83299627112479e-29 9.30699676553066e-05 3.23572266668642e-28 9.30693454746525e-05)
(9.31053336365393e-05 -2.98935860768984e-06 6.55995269429726e-27 9.31065782583037e-05 -1.31575860442698e-27 9.31059738501809e-05)
(9.31709364028479e-05 -2.99401896514835e-06 4.72769631925517e-29 9.31721033599355e-05 6.58497168561759e-28 9.31715153931645e-05)
(9.31553556275513e-05 -2.99499315854281e-06 -4.41996261445999e-27 9.31567411344407e-05 -3.15766736609261e-28 9.31560832687741e-05)
(9.32139899512217e-05 -2.99907462663272e-06 4.38171525219051e-27 9.32150235228169e-05 -5.41376996451868e-28 9.32144855010074e-05)
(9.32311184568097e-05 -3.0012165362635e-06 -2.17349456119972e-27 9.32324585030229e-05 5.43101912006288e-28 9.32318247710414e-05)
(9.3226155693971e-05 -3.00236185475017e-06 6.56192057371757e-27 9.32272940048899e-05 2.7589423212427e-28 9.32267166857111e-05)
(9.32674842126151e-05 -3.00534504829196e-06 1.72451025200462e-29 9.32686410901133e-05 2.10898173476559e-28 9.32680765285796e-05)
(9.32792537178475e-05 -3.00703836960076e-06 -2.21571082086223e-27 9.3280374605582e-05 -4.8348155701498e-28 9.32798221299605e-05)
(9.32995652882615e-05 -3.00901782478395e-06 -2.19760096746127e-27 9.33006820052567e-05 -2.24700738615403e-28 9.33001271729338e-05)
(9.33051196445372e-05 -3.01027946888841e-06 5.48778135960242e-27 9.33062320599166e-05 -6.98888213190096e-29 9.33056910009742e-05)
(9.33647904090959e-05 -3.01386995370739e-06 -1.0823228697797e-27 9.3365733229645e-05 1.79534461490064e-28 9.3365253308271e-05)
(9.33865916054699e-05 -3.01577638529362e-06 -1.0659667380458e-29 9.33877108969703e-05 7.44880827938288e-32 9.33871727214458e-05)
(9.34103395459621e-05 -3.01776563480185e-06 1.10377328068457e-27 9.34115247723338e-05 -6.30072598969471e-29 9.34109215453782e-05)
(9.34342514395026e-05 -3.01963637032824e-06 -1.0905814890648e-27 9.34352691139826e-05 9.8701181116792e-29 9.34347916806247e-05)
(9.36406394206876e-05 -3.02964376042841e-06 8.90661167026363e-28 9.36418612041057e-05 1.88670149934706e-23 9.36411829553267e-05)
(9.34801954371772e-05 -3.0234592928186e-06 1.93213627779226e-27 9.34813189320837e-05 1.4113048662883e-23 9.34809154248851e-05)
(9.41303659685581e-05 -3.05321191893993e-06 -5.60708473210104e-28 9.4132123504475e-05 8.64668083329348e-29 9.41309361924608e-05)
(9.3620172285044e-05 -3.03156577093456e-06 2.0791402166398e-27 9.36202343435161e-05 2.72721920603079e-30 9.36206676372119e-05)
(9.4348684982305e-05 -3.06597957819535e-06 1.59047389396693e-28 9.43576517196937e-05 -3.08173364482738e-29 9.43525025909534e-05)
(0.000126288678892354 -2.07752344141602e-05 2.83493580358193e-27 0.000126201740836856 -3.92351191183984e-28 0.000126241397744453)
(0.000123273210334745 -2.0059425407573e-05 -2.13031582361246e-27 0.000123061156185523 3.83614405393083e-28 0.000123168890076298)
(0.000119391012282684 -1.91141308527329e-05 -6.04685873882537e-28 0.000119079058453919 -1.11454433622436e-30 0.000119232879629411)
(0.000114890186124209 -1.79473999986488e-05 -7.91917536361288e-26 0.00011450807521553 -2.91929442474482e-28 0.000114697185175413)
(0.000110160000817312 -1.66658959897195e-05 3.70662312589186e-25 0.000109692116675049 6.59463692726367e-25 0.000109924754576789)
(0.000106461208083331 -1.55398350058873e-05 -1.20585033456539e-24 0.000105839652212795 4.01434023886012e-26 0.00010614732681445)
(0.000104039713011572 -1.46374192571181e-05 2.53746698459166e-24 0.000103184473792911 -1.45277392084873e-23 0.000103608732226209)
(0.000102766730882222 -1.39687026222073e-05 7.78356923593901e-25 0.00010158513422396 2.56674214279642e-23 0.000102172069205134)
(0.000102472076940903 -1.35205755317225e-05 5.45402690210667e-24 0.000100863735373485 4.23058565239511e-26 0.000101662991649962)
(0.000102974597489574 -1.3266590083242e-05 -1.87660118753044e-23 0.000100831146624578 6.4771687456382e-24 0.000101897661782128)
(0.000104392590049472 -1.32153423773312e-05 1.06918083194738e-21 0.000101573716189454 -1.98674857829241e-20 0.000102976095425536)
(0.000106447068345048 -1.3313109294677e-05 1.43984849810334e-21 0.000102809777046803 -2.04389576693486e-20 0.000104622449877059)
(0.000109729390362663 -1.36444973584956e-05 -1.05481116462525e-23 0.000105048667194304 1.18413231322906e-22 0.000107381332543519)
(0.000113357284719768 -1.40755067312117e-05 4.18695718019783e-26 0.000107423020061138 -3.65882283134275e-25 0.000110384505446608)
(0.000117158160462305 -1.45643997126453e-05 5.62053901169382e-23 0.00010974051458611 -2.56473010642917e-22 0.000113445766366965)
(0.000121300928768014 -1.51106688793048e-05 -6.76463021378532e-23 0.000112140794306166 2.61306084903241e-22 0.000116721246776476)
(0.000125811324864686 -1.56998551389478e-05 -1.00747913881895e-22 0.000114626295395503 2.49658505720995e-23 0.000120225984371517)
(0.000130276096762685 -1.62597871906528e-05 -5.47957241899702e-24 0.000116825080379556 4.62307961494631e-22 0.00012356711769903)
(0.000134576294107928 -1.67420662806125e-05 -7.89538144525738e-23 0.000118676275388515 4.24255462181432e-22 0.000126656833702537)
(0.000139969110737861 -1.73003734710636e-05 -1.06515034538215e-22 0.000121235917277371 4.06313495101092e-22 0.00013064604300952)
(0.000144746696206529 -1.77070675381887e-05 1.03789091809522e-22 0.000123142746498754 -3.5860194574055e-22 0.000134014094670695)
(0.000151043984925476 -1.82200577829786e-05 -2.96303235334346e-26 0.000126119635780286 1.40127098296812e-26 0.000138669832799574)
(0.00015760716938133 -1.8694245858922e-05 1.63657114291525e-22 0.000129248820409884 -4.76682305633914e-22 0.000143553477927478)
(0.000167756636352126 -1.95437268530584e-05 5.61801785543767e-24 0.000135027585288407 -1.42026398666807e-23 0.000151550096305877)
(0.000177944418065548 -2.04588372049913e-05 -3.92354420294882e-23 0.000140836662852964 9.70022600869866e-23 0.000159606285380898)
(0.000190002253109786 -2.16681748652814e-05 3.83361921790201e-22 0.000148057105776428 1.49109468474048e-22 0.000169287491324804)
(0.000203337377967675 -2.32362118696861e-05 1.25828386244733e-24 0.000156437105414313 -6.01518882772876e-26 0.000180203218989444)
(0.000216231495052192 -2.50910161394681e-05 1.01035116650147e-22 0.000164846159958429 -1.88439130105313e-22 0.000190900435462837)
(0.000228266902093721 -2.72321514054243e-05 1.38813556940714e-22 0.000173196185990239 4.41167981732881e-22 0.000201123027502664)
(0.000239290416205531 -2.96906932998044e-05 -6.11005458874627e-22 0.000181579981167159 7.99144866013314e-22 0.000210844079344934)
(0.000247600216347845 -3.22673343893854e-05 -4.3187065924932e-23 0.000188970199833734 2.26620266522102e-24 0.000218692605397103)
(0.000252419456712144 -3.47236183254684e-05 -9.96314236108769e-23 0.000194950235479846 -8.52376878635403e-22 0.000224065140467206)
(0.000252040286819329 -3.6633316313177e-05 -1.07752791371249e-21 0.000198288862148118 1.49303958796112e-21 0.000225497542032652)
(0.000244229152827858 -3.72969682449775e-05 4.37827110305399e-23 0.000196983621554915 -2.88853665498752e-24 0.000220870768960893)
(0.000231048323171041 -3.66466037481467e-05 -1.26423529644364e-25 0.000191897757773966 5.1622550161117e-25 0.000211660946489824)
(0.000212148205430518 -3.43696831344095e-05 1.03217263161319e-22 0.000182150560147791 -5.09184114951078e-22 0.000197273453407361)
(0.000191140007819064 -3.09916750721589e-05 -3.67969960172831e-26 0.0001696786031929 2.25805884729789e-25 0.000180474276722786)
(0.00017228154530137 -2.73870367390691e-05 -7.16896253710026e-28 0.000157810481518435 5.75738351553951e-27 0.00016507803992865)
(0.00015861104570476 -2.4348924444174e-05 2.05603929240155e-23 0.000149270299059083 -2.29736764599566e-22 0.000153951875707503)
(0.000149814917160105 -2.19962831697311e-05 -2.46720218386017e-26 0.000144250302041958 4.37066242607097e-25 0.000147035195126388)
(0.000144022394375061 -2.00775655882888e-05 -8.99265531143829e-24 0.000141350654178675 5.53896303681861e-23 0.00014268402411216)
(0.000140895652456651 -1.85424004568321e-05 2.01353160689468e-25 0.000140475343724032 -1.63466947190447e-24 0.000140679926065289)
(0.00013978682655274 -1.72862150903736e-05 1.10552958773179e-24 0.00014117312266927 4.6503945326593e-23 0.000140474197140644)
(0.000139901020973022 -1.61893328554821e-05 3.4657197662395e-24 0.000142756894209184 3.1643086562364e-22 0.000141323744323234)
(0.000140562773537092 -1.5139904881372e-05 -2.76717724492582e-25 0.00014460789000867 -1.86964249107068e-22 0.000142582627828926)
(0.000141550729155047 -1.41325378672768e-05 -3.63275744017254e-23 0.000146523700673562 3.03030609699242e-23 0.000144036464139031)
(0.0001416286659029 -1.30016541528732e-05 -1.3668874646225e-23 0.000147252913053236 -3.88783947702286e-23 0.00014444515231318)
(0.000141352325511615 -1.1850660736167e-05 -7.7663398208163e-23 0.000147362273844228 -3.80190132872533e-22 0.000144364482872735)
(0.000139349134964735 -1.05528847137623e-05 2.03305530013426e-23 0.000145445919594708 -1.30010224755985e-24 0.000142410444441851)
(0.000135580849392865 -9.13254245733215e-06 -1.89709804808545e-23 0.000141451164489771 1.55079664075701e-24 0.000138532450954461)
(0.000130252751986877 -7.6264897686256e-06 -1.45133933619782e-22 0.000135616134757812 -7.17206684610286e-22 0.000132956260844681)
(0.000124363597682949 -6.20858676687259e-06 -1.08541762289283e-22 0.00012906137296983 -6.56920884645066e-22 0.000126736099398996)
(0.000116727764672401 -4.8104763837012e-06 6.31717315770978e-23 0.000120590402472157 3.20032031843115e-22 0.000118686685383836)
(0.000109286196672375 -3.57794629439709e-06 1.61757838541116e-22 0.000112287904239216 4.93884849697868e-22 0.000110814534470362)
(0.000101722041236328 -2.50254210470664e-06 -3.26248097794396e-23 0.000103879528043238 -3.67671387293744e-23 0.000102830327557164)
(9.55486966402544e-05 -1.67136998213229e-06 -7.84254141634466e-23 9.69997399971927e-05 -2.09707735486296e-22 9.63022777700229e-05)
(8.9218415025559e-05 -1.00239693658469e-06 -1.12730509913696e-23 9.00527300269478e-05 8.75084018205711e-25 8.96641552205592e-05)
(8.41784129519613e-05 -4.89974414267706e-07 -2.44430664202701e-23 8.45145937225202e-05 -2.31211126307437e-22 8.43733261590125e-05)
(7.99692814217623e-05 -1.03225448364102e-07 4.02786087743019e-23 7.99150589862568e-05 2.17567492496085e-23 7.99690113704649e-05)
(7.70365865562014e-05 1.77600610897312e-07 -8.06736897292312e-23 7.66943915936135e-05 -7.2235872122111e-23 7.68909423935391e-05)
(7.39734537999439e-05 3.9087271727435e-07 7.85053317724946e-24 7.34019648449704e-05 -2.18075282917176e-23 7.37126383828837e-05)
(7.22507038573095e-05 5.69771111781361e-07 -1.89491204034064e-22 7.14915990063076e-05 -6.42432990486139e-22 7.1895518682035e-05)
(7.16356519309176e-05 6.98131463450435e-07 1.02469173473049e-23 7.07550793369452e-05 5.73179577986796e-23 7.12193736276232e-05)
(7.10682161262886e-05 7.96559662379958e-07 2.10940843064543e-23 7.00944396148452e-05 -1.71863476369569e-24 7.06049953461062e-05)
(7.12453994542669e-05 8.85371754526864e-07 3.80193749165362e-23 7.01963512471195e-05 -2.27675200318236e-24 7.07444452625895e-05)
(7.26388358882476e-05 9.59521167023078e-07 -1.53479852342521e-22 7.15480640412836e-05 -3.88987864186816e-22 7.21172980711588e-05)
(7.42824608872063e-05 1.00451754948999e-06 -8.74142182381257e-23 7.31839855045226e-05 -2.58940591704307e-22 7.3756767586193e-05)
(7.64545943063858e-05 1.04524294919263e-06 2.60112697750773e-24 7.53573300829921e-05 8.93003215335036e-24 7.59304812270441e-05)
(8.02181352232258e-05 1.06233722781969e-06 -5.18308726883573e-23 7.91686293301452e-05 -2.45826328733057e-22 7.97175793151769e-05)
(8.38512490358895e-05 1.04281352534111e-06 -2.85728294063518e-24 8.28788201848031e-05 1.04755196623142e-22 8.33903814193234e-05)
(8.86323550246446e-05 9.92570623771916e-07 -3.61710838976399e-23 8.77755669166045e-05 -1.08259778268047e-22 8.82290768052929e-05)
(9.3755265139347e-05 8.87678148122756e-07 -1.01044416099449e-23 9.30589915314638e-05 9.20443373391479e-24 9.34329360009112e-05)
(0.000100018043242626 7.23702008729212e-07 -1.17064052948594e-23 9.95315451579174e-05 9.66100077205728e-25 9.98005342032224e-05)
(0.0001069235561789 4.64667926898652e-07 2.91127520985507e-26 0.000106706326404986 -3.10160293139523e-26 0.000106840447057532)
(0.000114427101405574 1.06171655500355e-07 -2.36524541102237e-24 0.000114524071044915 -1.50928242348143e-23 0.000114500893381671)
(0.000122892138735067 -3.92318574444375e-07 -6.00361198349623e-24 0.000123361909465412 -9.8664558486071e-23 0.000123150779927053)
(0.000131787468373896 -1.04128774263655e-06 -3.19388578110365e-23 0.00013266255212749 -1.87422684189416e-22 0.000132247899974596)
(0.000141790278390337 -1.88919958419294e-06 -1.03850383684421e-23 0.000143108737004045 9.23374952990658e-25 0.000142469324918228)
(0.000152395369743948 -2.95352461406128e-06 -7.17443963773984e-24 0.000154160874440012 -3.86764280419954e-23 0.000153296058638708)
(0.000163990134207929 -4.29035446799112e-06 -2.20888783557294e-24 0.000166191356941302 -3.33057747214808e-23 0.000165103759026221)
(0.00017571100222128 -5.88033978335205e-06 3.57932271546377e-24 0.00017827879154468 -2.84994525628022e-25 0.000177005592960506)
(0.000188752184101455 -7.815395851827e-06 1.09178572111055e-25 0.000191607274705179 1.64701954522958e-24 0.000190184016270359)
(0.000202600234781787 -1.00941969445137e-05 1.90690405700964e-25 0.000205603226205984 4.34055989243091e-24 0.000204103901556647)
(0.000217685657651329 -1.28027326904944e-05 -2.20358201239943e-23 0.000220662398268601 9.99548565633491e-25 0.000219168617744285)
(0.000233564994950544 -1.59101985211724e-05 -1.06451764793623e-23 0.000236297004300608 9.11091335428745e-25 0.00023492801568616)
(0.000254168174393144 -1.98675279619962e-05 1.51951765135619e-24 0.000256444905502221 -1.15579206555727e-24 0.00025529342805931)