/*--------------------------------*- C++ -*----------------------------------*\
| =========                 |                                                 |
| \\      /  F ield         | OpenFOAM: The Open Source CFD Toolbox           |
|  \\    /   O peration     | Version:  v2006                                 |
|   \\  /    A nd           | Website:  www.openfoam.com                      |
|    \\/     M anipulation  |                                                 |
\*---------------------------------------------------------------------------*/
FoamFile
{
    version     2.0;
    format      ascii;
    class       volVectorField;
    location    "7000";
    object      wallShearStress;
}
// * * * * * * * * * * * * * * * * * * * * * * * * * * * * * * * * * * * * * //

dimensions      [0 2 -2 0 0 0 0];


internalField   uniform (0 0 0);

boundaryField
{
    bottomWall
    {
        type            calculated;
        value           nonuniform List<vector> 
140
(
(-0.002411570502622 -2.11625281936007e-06 0)
(-0.00235711466082251 -4.40376818909296e-06 0)
(-0.00224629482105266 -5.28799452455725e-06 0)
(-0.00211425540724578 -6.01577557973891e-06 0)
(-0.001959091859544 -8.21742961476901e-06 1.34691621666264e-38)
(-0.00180896243723256 -1.30658406616624e-05 9.18354961579912e-41)
(-0.00169033875640241 -2.10901137970619e-05 7.62640704855596e-21)
(-0.00160514598843509 -3.2270148056947e-05 0)
(-0.00155569514062929 -4.6671926980357e-05 2.93873587705572e-39)
(-0.00154001535730928 -6.48850212236026e-05 -3.31379102880418e-20)
(-0.00156581127742404 -8.82559686655622e-05 0)
(-0.00162345800885791 -0.000117738782851803 6.87457211342404e-20)
(-0.00171981988371125 -0.000155714314331924 -6.81486016138268e-23)
(-0.00185577054779043 -0.000204228164649913 1.36256677896647e-22)
(-0.00202118103705515 -0.000264738988024618 1.39472692567531e-19)
(-0.00222326087444091 -0.000340490467879382 -1.38241904271023e-19)
(-0.00246662976761005 -0.000435040402144825 -1.35910980708613e-19)
(-0.00275093774218324 -0.000550678657200658 -1.31990027779651e-19)
(-0.00306238764257568 -0.000687866437290627 -1.26506491273159e-19)
(-0.00343915726392544 -0.000857632161303888 -2.38780979223269e-19)
(-0.00385150554058336 -0.00105410345164746 2.19308565402149e-19)
(-0.00433589619353394 -0.00129232560257511 1.09931167148354e-23)
(-0.00488312740258876 -0.00156800534446287 1.64488484810332e-19)
(-0.0055687004837935 -0.00191083714331168 1.26790611641288e-19)
(-0.00634610621329264 -0.00228862519480816 1.55452828475934e-24)
(-0.00720880983422673 -0.00270352635020474 1.62801168278809e-20)
(-0.00818692220025254 -0.0031356019710662 1.88079096131566e-37)
(-0.00919520453229183 -0.00353695473608354 1.48092433247366e-19)
(-0.0102073346051472 -0.00387750774886514 -2.51587746741215e-19)
(-0.0112154542008535 -0.00413229850598468 -3.67456878481377e-19)
(-0.0121464009430086 -0.00425794600978361 -1.36501690656321e-22)
(-0.0129355103307635 -0.00422968120747148 6.29093316476663e-19)
(-0.0134945378181699 -0.00402058883841454 2.18171751512617e-35)
(-0.0136862937800211 -0.0036268891878762 0)
(-0.0135582414293276 -0.00311401524166755 0)
(-0.0130216112329802 -0.00250517127333414 -9.18354961579912e-41)
(-0.0121432315556666 -0.00189483305071602 -2.96431792211848e-22)
(-0.01111659291926 -0.00134500892693963 -8.08764155040531e-24)
(-0.0101003561439848 -0.000895429217090986 3.08555545028122e-22)
(-0.00917294929208862 -0.000533888719930372 -9.18354961579912e-41)
(-0.00825050853443286 -0.000243978413420002 -3.12195121587767e-22)
(-0.00735747862792546 -1.93026823445339e-05 4.89555136648463e-24)
(-0.00651229924410771 0.000149578853674893 -7.86150489733732e-20)
(-0.00570371444036187 0.000270146810977763 -1.5424527071032e-19)
(-0.00491526852450501 0.000348120355905718 2.99497858890007e-19)
(-0.00418318427566428 0.00039051838725507 2.88424126859821e-19)
(-0.00346802625156171 0.000400872608012172 -2.76460804833839e-19)
(-0.00279744497238337 0.000384763386796142 5.27506090858837e-19)
(-0.00217462847584913 0.000348338964121747 0)
(-0.00157053042263151 0.000291419081889085 -9.4039548065783e-38)
(-0.00099000094069837 0.000217127372546 4.44552396139923e-19)
(-0.000487240499514847 0.000138547469999394 4.1509447473427e-19)
(-3.73632450121355e-05 5.45574186086012e-05 1.96174578189953e-22)
(0.000356255863372184 -2.8734146762494e-05 -7.18370881413295e-19)
(0.000684078755518109 -0.000107360278394544 -3.3269898164232e-19)
(0.000928557768686695 -0.000171052002642913 3.07462580063775e-19)
(0.00110282311224988 -0.000222806819227291 -2.87983063417333e-22)
(0.00123371568759329 -0.000263509534200194 1.04910770430314e-18)
(0.00131523881268665 -0.000291942031457079 -2.46247992124945e-22)
(0.00135869052339392 -0.000308262299508573 -4.49025893044905e-19)
(0.00137328156878407 -0.000317424779512139 1.12101129382468e-22)
(0.00138459258626185 -0.000322652763338532 -1.81328781788668e-22)
(0.0013713051761849 -0.000318712365936452 3.57104151866468e-19)
(0.00134799366850313 -0.000311829489456769 3.23175779697074e-22)
(0.00132505384372564 -0.000303406815906462 -1.55271187692996e-22)
(0.00129674099163372 -0.000290883279967543 4.98642944865196e-23)
(0.0012575652345928 -0.00027527504957964 1.30031463716617e-19)
(0.00122316051545983 -0.000260530990058745 8.56058267450493e-23)
(0.00118083732731687 -0.00024151005588929 1.09818231916146e-19)
(0.00113305004363907 -0.000222441133255529 -2.00347174619433e-19)
(0.00108337408139463 -0.000202207013325333 9.08071795734853e-20)
(0.00102641546181003 -0.000181200178979198 -2.54434315743819e-23)
(0.000966155638920661 -0.000159555521120725 -1.35520782799291e-22)
(0.000895464391779823 -0.000137028901290649 1.35605182527828e-22)
(0.000819386658374617 -0.00011510051630953 -5.73992420921831e-20)
(0.000732643455905663 -9.29696270878012e-05 4.96643804754071e-20)
(0.000637505007366462 -7.2001595564944e-05 4.20724563347771e-20)
(0.000530871161178074 -5.17574939107161e-05 1.38104616242519e-23)
(0.000413068385129118 -3.33261782327991e-05 6.17951907120553e-23)
(0.000280370787729983 -1.66346504569596e-05 1.08065275709886e-20)
(0.000136728278717574 -3.0383099841471e-06 6.14355740112723e-23)
(-2.30226443020908e-05 7.86345021810862e-06 -4.96873136821615e-21)
(-0.000196962851037837 1.48309059106225e-05 -1.17256888978813e-21)
(-0.000391830778818538 1.81541809565813e-05 1.29351626944319e-23)
(-0.000599026741546545 1.65483780664637e-05 -4.56021847605689e-22)
(-0.000847767710888955 1.13623746956613e-05 2.12413490176346e-22)
(-0.00111969752336289 5.79024127178725e-06 2.1872905093298e-23)
(-0.00131989960611761 4.01179261854767e-06 -4.15170614041268e-23)
(-0.00147404823005048 3.86102537961911e-06 -1.22026789578217e-24)
(-0.00161501472500336 3.53872825077009e-06 2.06827361772388e-23)
(-0.00173545793647097 3.25571848877242e-06 -2.10228631158273e-23)
(-0.00184058413713089 3.00729732994091e-06 2.09595764423849e-23)
(-0.00193298888981939 2.73164295756075e-06 -1.04936493769683e-23)
(-0.00201344184187314 2.49108550084427e-06 1.01485406714014e-23)
(-0.00208347395477142 2.24984650368638e-06 3.05080717401241e-40)
(-0.00214450060571136 2.04444237842139e-06 9.07010463039057e-24)
(-0.00219718599423717 1.83427500434806e-06 -4.17914361846653e-25)
(-0.00224353337826302 1.63010929124544e-06 -4.331741993553e-25)
(-0.00228343674340248 1.47612188004478e-06 -4.34426637438009e-25)
(-0.00231778312147843 1.32368606538075e-06 -1.41212585030015e-23)
(-0.00234803956807082 1.18774101055114e-06 7.31260912374243e-24)
(-0.0023737733036768 1.08417908809181e-06 -4.37415315638992e-41)
(-0.00239619704076319 9.65444797410522e-07 -1.57385666510882e-24)
(-0.00241598875239707 8.62473529896008e-07 3.03205955218282e-43)
(-0.00243291010661874 7.83711091357921e-07 8.97992343270192e-41)
(-0.00244747025605246 7.20320018530039e-07 1.30793657330073e-24)
(-0.00246015398686089 6.53291458270039e-07 2.46073322259658e-24)
(-0.00247134705858317 5.92756159611684e-07 2.48730477417655e-44)
(-0.00248091550210041 5.37126362194637e-07 -2.71266334483235e-40)
(-0.00248962038967364 4.92492780362345e-07 1.02748683011958e-24)
(-0.0024965371554921 4.81871812730863e-07 -1.93470259247528e-24)
(-0.00250288001976781 4.36506576595154e-07 1.8302866457109e-24)
(-0.00250860280493057 4.12516151635369e-07 1.72661618621169e-24)
(-0.0025134239824031 3.85526163594631e-07 1.63382790132765e-24)
(-0.0025176392268316 3.83201665864062e-07 -3.0098684393804e-24)
(-0.00252100646072101 3.61428920067601e-07 3.00964549142598e-24)
(-0.00252483464895459 3.18658917798589e-07 1.35220829559962e-24)
(-0.0025277521198294 3.24315584024258e-07 2.5243906499981e-24)
(-0.00252999955991217 3.20628719609863e-07 -1.34597218860262e-24)
(-0.00253233485040486 3.11296520122092e-07 -6.24327080851083e-26)
(-0.00253445425366962 3.01309520399937e-07 1.06382578203355e-24)
(-0.00253611867349588 2.91147208326977e-07 -3.16921962498077e-24)
(-0.00253817472326896 2.84817801239046e-07 1.06460020854384e-24)
(-0.00253896064157168 3.05743044690801e-07 1.00453936349846e-29)
(-0.00254081281227883 2.64484098536889e-07 -1.81420514823544e-24)
(-0.00254200574919249 2.92735541176127e-07 8.25307304652078e-25)
(-0.00254281317416451 2.73043519037955e-07 -8.2534497574693e-25)
(-0.00254429486050817 2.67233130387007e-07 7.51067613994219e-25)
(-0.00254527649969281 2.57920620648046e-07 -2.47457221390462e-26)
(-0.00254636701435453 2.59593960943681e-07 -2.47615550865043e-26)
(-0.00254719677147618 2.52110645964716e-07 -8.87921401941719e-25)
(-0.00254880412185232 2.29526445193502e-07 2.87820485431176e-25)
(-0.00254981300894407 2.46543299074336e-07 7.00649232162409e-46)
(-0.00255083483071955 2.77483635256715e-07 -2.06813760043315e-25)
(-0.00255180225198162 2.25716022869943e-07 1.45748480403982e-26)
(-0.00255551605904211 3.13433634672031e-07 4.03842492796106e-25)
(-0.00255360744317497 1.79406551384243e-07 1.1674142372795e-25)
(-0.00256393942037961 5.74525958357525e-07 2.82109475638696e-25)
(-0.00255675036645082 -2.92329695191367e-07 -2.49350957045843e-26)
(-0.00256819258004549 2.44895183838257e-06 8.572520857494e-25)
)
;
    }
    topWall
    {
        type            calculated;
        value           nonuniform List<vector> 
140
(
(-0.00247999895520743 -4.82613512201875e-07 0)
(-0.00251994430156013 -1.09010141914577e-06 0)
(-0.00257450684916752 -1.31140388800475e-06 0)
(-0.00263932931476544 -1.51845426644458e-06 0)
(-0.00271381498541595 -1.69463605932037e-06 0)
(-0.00279634445995529 -1.85216951080098e-06 0)
(-0.00288646020831312 -2.00505724268814e-06 0)
(-0.00298399252743154 -2.15710520871306e-06 0)
(-0.0030889499780429 -2.31186785241919e-06 0)
(-0.00320148743527404 -2.47124927299419e-06 0)
(-0.00332182087154405 -2.63590101908198e-06 0)
(-0.00345018578823823 -2.80571173608177e-06 0)
(-0.00358680307418286 -2.9798628553038e-06 0)
(-0.00373184778478093 -3.15689001870988e-06 0)
(-0.00388542044508455 -3.33469182465649e-06 0)
(-0.00404751793308097 -3.51049745477456e-06 0)
(-0.00421800280944744 -3.68081899785246e-06 0)
(-0.00439657046415585 -3.84139661982015e-06 0)
(-0.00458271399681133 -3.98715158363768e-06 0)
(-0.00477568722365514 -4.11215856226921e-06 0)
(-0.0049744669845295 -4.20965835569029e-06 0)
(-0.00517771652384912 -4.27212410291509e-06 0)
(-0.00538375265682822 -4.29140811122547e-06 0)
(-0.00559052023371931 -4.25898178314814e-06 0)
(-0.00579557821633229 -4.16629091544424e-06 0)
(-0.00599610232578898 -4.00522829743949e-06 0)
(-0.00618890930927247 -3.76872102261021e-06 0)
(-0.00637050757389577 -3.45140740733637e-06 0)
(-0.00653717767852085 -3.0503564410934e-06 0)
(-0.00668508395200895 -2.56576228762859e-06 0)
(-0.00681041575163894 -2.00152622615071e-06 0)
(-0.0069095524656409 -1.36562195768521e-06 0)
(-0.00697924309959309 -6.70216125925458e-07 0)
(-0.00701679161681677 6.88269223366627e-08 0)
(-0.00702019707601028 8.31156500346781e-07 0)
(-0.00698844123284388 1.59458518485989e-06 0)
(-0.00692145363244546 2.33820667231441e-06 0)
(-0.00682003894316504 3.04162271082773e-06 0)
(-0.00668589397343932 3.68617113703689e-06 0)
(-0.00652156070899908 4.25552305636524e-06 0)
(-0.00633032462170291 4.73692799539178e-06 0)
(-0.00611604690307021 5.12208002417683e-06 0)
(-0.00588297943559305 5.40701544464565e-06 0)
(-0.0056355724359273 5.59199685440965e-06 0)
(-0.00537830133076564 5.68074648147585e-06 0)
(-0.00511550267176576 5.6803968509921e-06 0)
(-0.00485122472408646 5.6004202389778e-06 0)
(-0.0045891237548372 5.45182248042131e-06 0)
(-0.00433238815448139 5.24653437976882e-06 0)
(-0.00408369237927294 4.99669270664368e-06 0)
(-0.00384518333174673 4.71403993776435e-06 0)
(-0.003618492986693 4.40946522552572e-06 0)
(-0.00340477207681124 4.09266545832345e-06 0)
(-0.00320473933118384 3.7719375963727e-06 0)
(-0.00301874017748229 3.45409519221231e-06 0)
(-0.00284680944461224 3.14448692716816e-06 0)
(-0.00268873353288764 2.84709500484742e-06 0)
(-0.0025441086431983 2.56468565389132e-06 0)
(-0.00241239289046365 2.29898792711034e-06 0)
(-0.00229295115008646 2.05088048181637e-06 0)
(-0.00218509232372024 1.82057153802492e-06 0)
(-0.00208809929280657 1.60776206587765e-06 0)
(-0.0020012522176866 1.41178712856202e-06 0)
(-0.00192384598998266 1.23173459791011e-06 0)
(-0.00185520269772341 1.06654128037828e-06 0)
(-0.00179467996980751 9.15068547983702e-07 0)
(-0.00174167598213902 7.76160681706029e-07 0)
(-0.00169563178691011 6.48688664247919e-07 0)
(-0.00165603158246986 5.31581137858049e-07 0)
(-0.00162240143950555 4.23845994779379e-07 0)
(-0.00159430688535879 3.24584063086087e-07 0)
(-0.00157134971410694 2.32996353541188e-07 0)
(-0.00155316431346987 1.48386546252762e-07 0)
(-0.00153941373864379 7.01595981962239e-08 0)
(-0.00152978573581774 -2.18226917477914e-09 0)
(-0.0015239888166687 -6.90481411798686e-08 0)
(-0.0015217488352078 -1.30765111599078e-07 0)
(-0.00152280517266019 -1.87579738378254e-07 0)
(-0.00152690726022893 -2.39748096131388e-07 0)
(-0.00153382236144027 -2.87478079142289e-07 0)
(-0.00154332288837143 -3.30849766058661e-07 0)
(-0.00155518200617804 -3.6989058146179e-07 0)
(-0.00156917429408424 -4.046057396138e-07 0)
(-0.00158507300507503 -4.34995916796425e-07 0)
(-0.00160265375472315 -4.61108138804267e-07 0)
(-0.00162169723340991 -4.83057696155514e-07 0)
(-0.00164199170207217 -5.01002838710713e-07 0)
(-0.00166333406306712 -5.15121104721499e-07 0)
(-0.00168553033085816 -5.25600629158731e-07 0)
(-0.00170839623453562 -5.32646841204593e-07 0)
(-0.00173175816233582 -5.36484702398802e-07 0)
(-0.00175545405360591 -5.373562402015e-07 0)
(-0.00177933412160149 -5.35516365469019e-07 0)
(-0.00180326137518765 -5.31228363487381e-07 0)
(-0.00182711191131976 -5.24758556022359e-07 0)
(-0.00185077496028458 -5.16371619885752e-07 0)
(-0.00187415273401663 -5.06326564425789e-07 0)
(-0.00189716008307543 -4.94872858581806e-07 0)
(-0.00191972398815698 -4.82247530694224e-07 0)
(-0.00194178292760436 -4.68672847774308e-07 0)
(-0.00196328614469489 -4.54354652567598e-07 0)
(-0.00198419284704575 -4.39481330008722e-07 0)
(-0.00200447136565753 -4.24223300602414e-07 0)
(-0.00202409829496602 -4.08732963448657e-07 0)
(-0.0020430576378149 -3.93145066397476e-07 0)
(-0.00206133996757035 -3.77577288276314e-07 0)
(-0.0020789416241488 -3.62131183744543e-07 0)
(-0.00209586395216546 -3.46893129101212e-07 0)
(-0.00211211258566849 -3.31935498156429e-07 0)
(-0.00212769678865581 -3.17317828406769e-07 0)
(-0.00214262884747154 -3.03088019955326e-07 0)
(-0.0021569235236161 -2.89283560830662e-07 0)
(-0.00217059755530301 -2.75932618938202e-07 0)
(-0.00218366922243543 -2.63055237488928e-07 0)
(-0.00219615794474257 -2.50664250957011e-07 0)
(-0.00220808396274385 -2.38766460828046e-07 0)
(-0.00221946799628135 -2.27363153274802e-07 0)
(-0.00223033107418779 -2.16451666141979e-07 0)
(-0.00224069415642975 -2.06024758261963e-07 0)
(-0.00225057826215185 -1.96073941165054e-07 0)
(-0.00226000373039727 -1.86585107259756e-07 0)
(-0.00226899123540884 -1.7754875795704e-07 0)
(-0.00227755953171405 -1.68942179026195e-07 0)
(-0.00228572954596866 -1.60765215571213e-07 0)
(-0.00229351638798061 -1.52973625344755e-07 0)
(-0.00230094462280657 -1.45608363649789e-07 0)
(-0.00230801897436369 -1.38550598219663e-07 0)
(-0.00231478081341464 -1.31992801466177e-07 0)
(-0.00232119968243411 -1.25542299108489e-07 0)
(-0.0023273830386899 -1.19939249041409e-07 0)
(-0.00233317167768911 -1.13786302918336e-07 0)
(-0.00233892500620931 -1.09800024303935e-07 0)
(-0.0023439969234475 -1.02926098491619e-07 0)
(-0.00234971256559423 -1.03004423315583e-07 0)
(-0.00235354308855668 -9.16523007985596e-08 0)
(-0.00236057393109276 -1.05218773109592e-07 0)
(-0.00236092023934102 -7.03453436192363e-08 0)
(-0.00237393690105476 -1.57742476478493e-07 0)
(-0.00236448040763537 1.29317321509406e-07 0)
(-0.00238379699041643 -5.22559369099891e-07 0)
)
;
    }
    inlet
    {
        type            calculated;
        value           uniform (0 0 0);
    }
    outlet
    {
        type            calculated;
        value           uniform (0 0 0);
    }
    frontAndBack
    {
        type            empty;
    }
}


// ************************************************************************* //
