/*--------------------------------*- C++ -*----------------------------------*\
| =========                 |                                                 |
| \\      /  F ield         | OpenFOAM: The Open Source CFD Toolbox           |
|  \\    /   O peration     | Version:  3.0.1                                 |
|   \\  /    A nd           | Web:      www.OpenFOAM.org                      |
|    \\/     M anipulation  |                                                 |
\*---------------------------------------------------------------------------*/
FoamFile
{
    version     2.0;
    format      ascii;
    class       volScalarField;
    location    "7000";
    object      ccx;
}
// * * * * * * * * * * * * * * * * * * * * * * * * * * * * * * * * * * * * * //

dimensions      [0 1 0 0 0 0 0];

internalField   nonuniform List<scalar> 
14000
(
0.0454803096380471
0.136440922469811
0.227401533814686
0.318362148960149
0.40932276009899
0.500283375424513
0.591243993594325
0.682204598314047
0.773165215968146
0.864125845039313
0.955086453020311
1.04604705034935
1.13700768898276
1.22796829714366
1.31892927745816
1.40988989550961
1.50085013129919
1.59181072130322
1.68277133804218
1.77373199629363
1.86469254001498
1.95565252339319
2.04661125773924
2.13756702658113
2.22851507430796
2.31944712545379
2.41034926984462
2.50120016851993
2.59197199848296
2.68262690896797
2.77311944668458
2.86339762086052
2.95340001330783
3.04305852458801
3.1323054551284
3.22107344468085
3.30928892273391
3.39689691270948
3.48384346243686
3.57008922138912
3.65560962117093
3.74045216146386
3.82472296254622
3.90857111933036
3.99222348474185
4.07592250114374
4.15990291675578
4.24439258438998
4.32958463901964
4.41562559973336
4.50260165455198
4.59050798347037
4.6792746384578
4.76877523713849
4.85884647495522
4.94932262241406
5.04006580092267
5.13096965724542
5.22194261517033
5.31290996276528
5.40381246917998
5.49460215126509
5.58523970866514
5.67569299004195
5.76593924305453
5.85596112066716
5.94574222234906
6.03527404382189
6.12455766559137
6.21359413172264
6.3023895042894
6.39096039757165
6.47933265069565
6.56753505290007
6.65559320581479
6.74354491052676
6.83142432201024
6.91925948730221
7.00707948691786
7.0949282426406
7.18282751546306
7.27080184380678
7.3588847192667
7.44709738368978
7.53545698542482
7.6239857685178
7.71269769719918
7.80159445111656
7.89068964887253
7.97998448790718
8.06948150514162
8.15917940693061
8.24906517753886
8.33913317716412
8.42937064412445
8.51976230512958
8.61029276285049
8.70094142357003
8.79168977322868
8.88251800298533
8.97340509991903
9.06433202920332
9.15528039124913
9.24623860124309
9.3371985885779
9.428159333151
9.51911985676622
9.6100804556457
9.70104118213848
9.79200150965869
9.88296215972545
9.97392290174673
10.0648832097479
10.1558441275188
10.2468048301161
10.3377654607833
10.4287260948158
10.5196862264201
10.6106472932866
10.7016073508528
10.7925682008736
10.8835288067431
10.974489488681
11.065450387415
11.15641062041
11.2473713849799
11.3383319491016
11.4292927533748
11.5202534717113
11.6112136536787
11.7021740508818
11.7931349504067
11.8840956184507
11.9750565557983
12.0660170378587
12.1569771569038
12.2479378744804
12.3388988127158
12.4298598078715
12.5208203574464
0.0454771802232386
0.13643153425896
0.227385886815539
0.318340243152905
0.409294595504523
0.500248952021012
0.59120331136697
0.682157657332913
0.773112016165846
0.864066386356364
0.955020735566592
1.04597507418036
1.1369294538833
1.22788380327249
1.31883852287643
1.40979288210457
1.5007468610625
1.59170119238942
1.68265555031198
1.77360994953075
1.86456423481673
1.95551796075412
2.04647043794265
2.13741995856412
2.22836179174812
2.31928770529886
2.41018386145375
2.50102903211423
2.59179554064177
2.68244573136747
2.7729343901697
2.8632097965935
2.95321085172722
3.04286981175664
3.13211933080674
3.22089239948815
3.30911582875517
3.39673493357208
3.48369603719944
3.56995999998807
3.65550237635955
3.74037043415543
3.82466973421374
3.90854860589044
3.99223272402767
4.07596327019778
4.15997377244023
4.24449090302066
4.32970679209479
4.41576720194805
4.50275786921172
4.59067399409775
4.6794459927149
4.76894812298529
4.85901792268728
4.94949051364832
5.04022873875928
5.13112679747116
5.22209358789036
5.31305478710895
5.40395147234803
5.49473590936443
5.58536900221526
5.67581876800576
5.76606257036475
5.8560831573503
5.94586421206441
6.03539727527232
6.12468341921106
6.21372368969707
6.30252411013497
6.39110121449048
6.47948070016757
6.5676912166212
6.65575822519282
6.74371933545473
6.83160852213018
6.91945369234107
7.00728376909825
7.09514244810955
7.1830513818253
7.27103497478158
7.35912654815433
7.44734723243353
7.5357140881803
7.62424923996201
7.71296658548621
7.80186779121914
7.890966405906
7.98026362271923
8.06976196148781
8.1594601403986
8.24934520852465
8.33941155615097
8.42964648830133
8.52003481105657
8.61056120828841
8.70120519345239
8.79194834802
8.88277096785319
8.9736521489811
9.06457295579913
9.15551509344783
9.24646704691177
9.33742077654231
9.42837526122713
9.51932952646025
9.61028386660831
9.70123833371199
9.79219240392248
9.88314679499928
9.97410127755139
10.0650553283448
10.1560099857307
10.2469644290645
10.3379188008425
10.4288731759688
10.5198270512841
10.6107818569891
10.7017356586522
10.792690248641
10.8836445957509
10.9745990185326
11.0655536569812
11.1565076331589
11.2474621381423
11.3384164437217
11.4293709882015
11.5203254471923
11.6112793726085
11.7022335121388
11.7931881513741
11.8841425603344
11.9750972371953
12.0660514611409
12.1570053239625
12.2479597821973
12.3389144599415
12.4298691943092
12.5208234854176
0.045473900242561
0.136421694352117
0.227369486990649
0.318317283389216
0.409265075823912
0.500212872400618
0.591160671791262
0.682108457875335
0.773056256755771
0.864004066931446
0.954951856241997
1.04589963501425
1.13684745465014
1.22779524413866
1.31874340180981
1.4096912010832
1.50063862217388
1.59158639369928
1.68253419167435
1.77348203071893
1.86442975645676
1.95537692388842
2.04632284286815
2.13726581464792
2.22820113428817
2.31912061494507
2.41001049475132
2.50084966180428
2.59161059286532
2.68225583674904
2.7727404300097
2.86301293551542
2.95301258899221
3.04267201936032
3.13192425145997
3.22070264364158
3.30893440667882
3.39656516110566
3.48354151886588
3.56982456133436
3.6553899716587
3.7402847746859
3.82461394489692
3.90852500925752
3.99224240784475
4.07600600077969
4.16004803721501
4.24459395207073
4.32983482234019
4.41591561709333
4.50292159985344
4.59084799202176
4.67962559136636
4.76912932691418
4.85919761930719
4.94966648265447
5.04039951604297
5.13129149820191
5.22225182437699
5.31320657940153
5.40409716339024
5.49487610298163
5.58550451648031
5.6759505975392
5.76619183133647
5.85621106559938
5.94599207108643
6.03552643577365
6.12481522323155
6.21385948111216
6.30266519229049
6.39124880655389
6.4796358727652
6.56785489387038
6.65593118417264
6.74390215251529
6.83180158469805
6.91965724119614
7.00749787993784
7.09536695967819
7.18328601910308
7.27127932242124
7.35938001219039
7.44760910218566
7.53598356095689
7.62452538784417
7.71324841083176
7.80215428257021
7.89125647858631
7.98055618757962
8.07005591146455
8.15975438082951
8.24963871267395
8.33970332881777
8.42993560419993
8.52032042809113
8.61084256947071
8.70148165412329
8.79221936364766
8.88303610364647
8.97391108434078
9.06482547412179
9.15576108789843
9.24670648381131
9.33765365466
9.42860157827387
9.51954928401469
9.61049706430431
9.70144497086025
9.79239248270239
9.88334031364977
9.97428823557015
10.0652357281021
10.1561838238965
10.2471317068143
10.3380795185684
10.429027333653
10.5199746516697
10.6109228949693
10.7018701397384
10.7928181685057
10.8837659557277
10.9747138182056
11.0656618951671
11.1566093134926
11.2475572577213
11.3385050036405
11.4294529871488
11.5204008856373
11.6113482534801
11.7022958342617
11.7932439120053
11.884191760738
11.9751398759006
12.0660875406342
12.157034846226
12.2479827439626
12.3389308600037
12.4298790323576
12.5208267638853
0.0454704624518266
0.136411381016797
0.227352298119253
0.318293218959992
0.409234135859791
0.500175056877639
0.591115980693146
0.68205689127906
0.772997814587312
0.863938749125457
0.954879662919182
1.04582056623557
1.13676151017921
1.22770242414988
1.31864370417327
1.40958462787212
1.50052517557618
1.59146607168764
1.68240699409578
1.77334795733581
1.86428880792526
1.9552291013011
2.04616814653627
2.13710425438926
2.22803274709895
2.31894548535552
2.40982878683849
2.50066166143161
2.59141674667667
2.68205680571006
2.77253713782269
2.86280660283728
2.95280478721794
3.0424647105528
3.1317197862337
3.22050375804407
3.30874425581361
3.39638722034825
3.48337956616453
3.56968260629587
3.65527215880939
3.74019499386629
3.82455547137854
3.90850027731568
3.99225255758092
4.07605078726479
4.16012587510231
4.2447019591357
4.32996901252521
4.41607117296105
4.50309320809508
4.59103036153682
4.67981383107619
4.76931924913438
4.85938596169483
4.94985091807927
5.0405785099538
5.1314641231969
5.22241767411239
5.31336567489249
5.40424986408081
5.49502304174931
5.58564655075808
5.67608876980197
5.76632731145658
5.85634512791368
5.94612608180576
6.03566181059107
6.12495336875658
6.21400180587833
6.30281306235163
6.39140349973543
6.47979851120462
6.5680264461472
6.6561124647536
6.74409376548048
6.83200393611432
6.91987058342798
7.0077222923245
7.09560227320562
7.1835319455192
7.27153542639498
7.35964567117857
7.4478835713148
7.53626599891522
7.62481482206753
7.71354379567827
7.8024545579175
7.89156050757081
7.98086282864985
8.07036400429238
8.16006277808524
8.24994633822239
8.34000913957588
8.43023863036374
8.52061978704908
8.61113746781361
8.70177141617564
8.79250341867858
8.88331399594583
8.97418247788441
9.06509014188494
9.15601891790592
9.24695744076366
9.33789773726716
9.42883878413658
9.51977961478756
9.61072051960355
9.70166154996343
9.79260218789375
9.88354314308353
9.97448418871983
10.065424807452
10.1563660259562
10.247307032816
10.3382479689232
10.4291889083422
10.5201293535683
10.6110707187248
10.7020110911273
10.7929522429923
10.8838931547098
10.9748341412474
11.0657753410282
11.1567158859829
11.2476569537987
11.338597824452
11.42953893132
11.5204799536601
11.6114204484243
11.7023611548955
11.7933023554536
11.8842433283257
11.9751845660864
12.066125356024
12.1570657888972
12.2480068104898
12.3389480491238
12.429889343745
12.5208302000902
0.0454668592583084
0.1364005714749
0.227334282237897
0.318267996716377
0.409201707277953
0.500135421932462
0.591069139367569
0.682002843653765
0.772936560584711
0.863870288677063
0.954803996151505
1.04573769321251
1.13667143065301
1.2276051383033
1.31853920977395
1.40947292709302
1.50040627071051
1.59133996061051
1.68227367664685
1.77320743326603
1.86414107792237
1.95507416651024
2.04600600728368
2.13693492096509
2.22785625827945
2.31876192973789
2.40963833639398
2.50046461577735
2.59121357394581
2.68184819866916
2.77232406461602
2.86259034285106
2.95258698745154
3.0422474274698
3.13150548354381
3.22029530343444
3.30854495618975
3.39620071829721
3.48320982140401
3.56953382134826
3.65514867760807
3.74010089340507
3.82449418451298
3.90847435544159
3.99226319565304
4.07609772856913
4.16020745801587
4.2448151627614
4.33010965902418
4.41623421311418
4.50327307295323
4.59122150542694
4.68001112759323
4.76951830911043
4.85958336582519
4.95004422726848
5.04076611581918
5.13164505371688
5.22259150339337
5.31353242496113
5.40440991167547
5.4951770501974
5.5857954187465
5.67623358996241
5.76646930994758
5.85648564038443
5.94626654019975
6.03580369871474
6.12509816089582
6.21415097833563
6.3029680469059
6.39156563569231
6.47996897469104
6.56820625234413
6.65630246731428
6.74429459754915
6.83221602329488
6.92009419022699
7.00795750189831
7.09584890840826
7.18378970422984
7.27180385233719
7.35992411185656
7.44817124601669
7.53656202585102
7.62511818187973
7.71385339241587
7.8027692804522
7.89187916434089
7.98118422318025
8.07068692042783
8.16038601329458
8.25026876459423
8.34032966384125
8.43055623605856
8.52093354909669
8.61144655463161
8.70207511957981
8.79280114047853
8.88360525850597
8.97446692901351
9.06536754363552
9.15628915291535
9.247220472034
9.33815356344623
9.42908740270965
9.52002102748891
9.61095472603089
9.70188854935959
9.79282198265285
9.88375573127098
9.97468956978382
10.0656229839964
10.1565569943227
10.247490794296
10.3384245239475
10.4293582568912
10.5202914986555
10.61122565474
10.7021588241252
10.7930927682187
10.8840264736299
10.9749602534043
11.0658942451218
11.1568275860066
11.2477614465638
11.3386951111609
11.4296290105322
11.520562825891
11.6114961168914
11.7024296183076
11.7933636107977
11.8842973769902
11.9752314064559
12.0661649908295
12.1570982203164
12.2480320349323
12.338966065266
12.4299001512454
12.5208338016216
0.0454630827039703
0.136389241852402
0.227315399556589
0.318241560952364
0.409167718456424
0.500093880027096
0.591020044360482
0.681946195629521
0.772872359461991
0.86379853438408
0.954724688820861
1.04565083291118
1.13657701712129
1.22750317173279
1.31842968782487
1.40935585204286
1.50028164496281
1.59120778193817
1.6821339448818
1.77306014814725
1.86398624017068
1.95491177732587
2.0458360670086
2.13675744038455
2.22767127803533
2.31856954269006
2.40943872278773
2.50025808964519
2.5910006259441
2.6816295548954
2.77210073979463
2.86236367792322
2.95235870865855
3.04201969021777
3.13128087007898
3.22007681941727
3.30833606763133
3.39600524304129
3.48303190968325
3.56937787788248
3.65501925533191
3.74000226547026
3.82442994894101
3.90844718638378
3.99227434555648
4.07614692836791
4.16029296614084
4.24493381297088
4.33025707247094
4.41640509764567
4.50346159168016
4.5914218458554
4.68021791666933
4.76972694648867
4.85979026768713
4.95024683716654
5.04096274798686
5.13183468936628
5.22277369614038
5.31370719789268
5.40457765965633
5.49533846846997
5.58595144923646
5.67638537787142
5.7666181404285
5.85663291334872
5.94641375648613
6.03595241352021
6.12524991943871
6.21430732794797
6.30313048825396
6.39173557251988
6.4801476397122
6.56839470958337
6.65650161149672
6.74450509228156
6.83243831465821
6.92032855545403
7.00820402814619
7.09610741000779
7.18405986452416
7.27208519309677
7.36021594919182
7.44847276165311
7.53687229557279
7.62543613728462
7.71417788482321
7.80309914527372
7.89221315268497
7.98152108100573
8.07102537306631
8.16072480035748
8.25060670390287
8.34066560952619
8.43088912275059
8.52126240721096
8.61177051257584
8.70239343509707
8.79311318659772
8.88391053461118
8.9747650659686
9.06565829204475
9.15657238976944
9.24749615855485
9.33842169821654
9.42934798309367
9.52027405530437
9.61120020085612
9.70212647040102
9.79305235241976
9.88397854773572
9.97490483236804
10.0658306954292
10.1567571507698
10.2476833971109
10.3386095735818
10.4295357533244
10.5204614450459
10.6113880452076
10.7023136650159
10.7932400545497
10.8841662069368
10.9750924332083
11.0660188700604
11.156944660265
11.2478709668001
11.3387970786352
11.4297234237347
11.520649685362
11.6115754260033
11.702501375707
11.7934278133264
11.8843540261036
11.9752805004608
12.0662065325885
12.1571322121118
12.248058473001
12.3389849482206
12.429911478728
12.5208375764338
0.0454591244478909
0.136377367126631
0.227295608370924
0.31821385328176
0.409132094327285
0.500050339411831
0.590968587240348
0.681886822093151
0.772805069424152
0.863723327769535
0.954641565768588
1.04555979349138
1.13647806106177
1.22739629923435
1.31831489643517
1.40923314414895
1.5001510230839
1.59106924373998
1.68198749018819
1.77290577668464
1.86382395269456
1.95474157509424
2.04565795037989
2.13657142066294
2.2274773978181
2.31836789930485
2.40922950515189
2.50004162690024
2.59077743235323
2.68140039149065
2.77186667012171
2.86212610743979
2.95211944666041
3.04178099581398
3.13104544975545
3.21984782344603
3.30811712878418
3.39580036285081
3.48284543806342
3.569214431479
3.65488360613647
3.7398988922304
3.82436262279081
3.90841871013619
3.99228603191713
4.07619849532452
4.16038258833157
4.24505817181662
4.33041157844493
4.41658420397366
4.50365918064131
4.59163182529715
4.68043465502177
4.76994562206821
4.86000712424631
4.95045919525948
5.04116884074017
5.13203344897565
5.22296465474544
5.31389037969169
5.4047534785126
5.49550765307644
5.58611498683795
5.6765444687689
5.76677413160754
5.85678727207489
5.94656805580817
6.03610828346047
6.12540897956078
6.21447120003087
6.30330074516563
6.39191368554269
6.48033490086984
6.56859223409395
6.65671033713329
6.74472571457909
6.83267130115991
6.9205741967312
7.00846241554919
7.09637834893416
7.18434302308163
7.27238007004643
7.36052182773987
7.44878878415508
7.53719749334583
7.62576939052202
7.7145179895777
7.80344488092487
7.89256321025296
7.9818741461136
8.07138010971723
8.16107988752184
8.2509609025237
8.34101771860278
8.43123802565567
8.52160708771009
8.61211005714191
8.70272706576103
8.79344024622311
8.88423049849609
8.97507754721674
9.06596302926134
9.15686925402687
9.24778510920915
9.3387027337822
9.42962110080809
9.52053925707274
9.61145748623646
9.70237583856161
9.7932938059906
9.88421208459161
9.97513045190278
10.0660484005033
10.1569669373643
10.2478852666446
10.3388035265278
10.4297217896614
10.5206395680842
10.6115582487842
10.702475955782
10.7933944272829
10.8843126632465
10.9752309725926
11.0661494910912
11.157067367329
11.2479857563945
11.338903952081
11.4298223794492
11.5207407239116
11.6116585509225
11.7025765855774
11.7934951048378
11.8844134007815
11.9753319565306
12.0662500730504
12.1571678393579
12.2480861830871
12.3390047396927
12.429923351211
12.5208415328639
0.0454549757478425
0.136364921070995
0.227274864969971
0.31818481250924
0.40909475621087
0.500004703922606
0.590914654358666
0.68182459191191
0.772734541854019
0.863644502731651
0.95455444340862
1.0454643738829
1.1363743439195
1.22728428476874
1.31819458207589
1.40910453239792
1.50001411658152
1.59092404003967
1.68183398910532
1.77274397793246
1.86365385706493
1.95456318390568
2.04547126400811
2.13637645095599
2.22727418942278
2.31815655423148
2.40901022140719
2.49981474946158
2.59054350022643
2.68116020232312
2.77162133862931
2.86187710670079
2.95186867302101
3.04153081707563
3.13079870262127
3.21960780975735
3.30788765609684
3.39558562522419
3.48264999470011
3.56904312114711
3.65474143042439
3.73979054537339
3.82429205736462
3.90838886380574
3.99229828054564
4.07625254333044
4.16047652252885
4.24518851395925
4.33057351819029
4.41677192767519
4.50386627623477
4.59185190751605
4.680661821342
4.77017481881868
4.86023441445441
4.95068177056328
5.04138484925709
5.13224177152676
5.22316480096087
5.31408237493451
5.40493775655881
5.49568497767897
5.5862863927412
5.67671121402416
5.76693762800805
5.85694905748096
5.94672977895279
6.03627165279144
6.12557569256386
6.21464295651401
6.30347919367231
6.39210036814328
6.48053117175127
6.568799262131
6.65692910521814
6.74495695171102
6.832915497377
6.92083165658504
7.00873323478512
7.09666232358662
7.18463980528989
7.27268913445513
7.36084242306786
7.4491200114937
7.53753833740571
7.62611867761877
7.71487445783831
7.80380725100093
7.89293011018537
7.98224419828667
8.07175191385501
8.16145205903601
8.25133214274248
8.34138676874165
8.43160371536314
8.52196835185766
8.61246593825002
8.70307674843037
8.79378304170047
8.88456585683479
8.9754050629058
9.06628242832966
9.15718040134379
9.24808796217506
9.33899729084004
9.4299073590623
9.52081721852023
9.61172715041393
9.70263720459736
9.79354687664114
9.88445685762951
9.97536692669268
10.0662765800433
10.1571868174421
10.2480968487473
10.3390068111513
10.4299167767833
10.5208262611739
10.6117366413825
10.70264605486
10.7935562273668
10.8844661660232
10.975376177536
11.0662863967047
11.1571959782102
11.2481060688722
11.3390159675395
11.4299260962298
11.5208361426079
11.6117456752393
11.7026554140278
11.7935656339525
11.8844756321593
11.9753858883113
12.0662957083788
12.1572051807412
12.2481152263914
12.3390254833939
12.429935794916
12.5208456796502
0.0454506274409821
0.136351876197066
0.227253123539736
0.318154374495186
0.409055621642002
0.499956872768617
0.590858126598965
0.681759367643863
0.772660620983995
0.863561885176997
0.954463129322011
1.04536436334145
1.13626563662421
1.22716688094018
1.31806847902007
1.4089697327371
1.49987062308317
1.5907718501395
1.68167310260981
1.77257439454107
1.86347557760761
1.9543762097644
2.04527559557668
2.13617210065252
2.22706120404216
2.31793504069203
2.40878038724226
2.49957695624637
2.59029831289981
2.68090845690948
2.77136420347662
2.86161612576127
2.95160583387953
3.04126860145552
3.13054008370799
3.21935624825397
3.30764714275267
3.39536055588847
3.48244514793369
3.56886356852763
3.65459241418363
3.73967698560228
3.82421809681036
3.9083575814733
3.99231111849451
4.07630919175688
4.16057497619705
4.24532512727425
4.33074324936952
4.41696868335972
4.50408333585524
4.59208257858916
4.68089991735284
4.77041504294694
4.86047264030702
4.95091505465973
5.04161125061565
5.13246011712211
5.22337457683073
5.31428360766289
5.40513090079251
5.49587083391773
5.58646604551441
5.67688598191195
5.76710899072946
5.85711862688755
5.94689928310322
6.03644288233223
6.12575042665209
6.21482297674068
6.30366622789745
6.39229603263109
6.48073688584278
6.56901625093926
6.65715839892525
6.74519931439071
6.83317144264448
6.92110150364483
7.00901708398895
7.09695996115531
7.18495086662599
7.27301306892649
7.36117844324661
7.44946717522167
7.53789558054462
7.62648477001423
7.71524807690467
7.80418705583612
7.89331466282091
7.98263205482552
8.07214160664941
8.16184213688098
8.25172124448311
8.34177357502952
8.43198699953769
8.52234699754391
8.61283894190131
8.70344325541624
8.79414233012981
8.88491735030154
8.97574833638874
9.0666171946763
9.15750651892191
9.24840538633535
9.33930601995046
9.43020739008793
9.52110855355408
9.61200978897038
9.70291114576281
9.79381212330468
9.88471340745656
9.97561477901727
10.0665157380078
10.1574172766316
10.2483186107204
10.3392198764278
10.4301211453397
10.5210219366466
10.6119236170014
10.7028243379316
10.7937258121539
10.884627054294
10.9755283687392
11.0664298892714
11.1573307769594
11.2482321699559
11.3391333724087
11.4300348031461
11.5209361521934
11.6118369913768
11.7027380351592
11.7936395564414
11.8845408576814
11.9754424149171
12.0663435393643
12.1572443187342
12.248145667059
12.3390472251388
12.4299488373261
12.5208500259512
0.0454460699236153
0.136338203693861
0.227230336061976
0.318122472014033
0.409014604187857
0.499906740309713
0.590798879113721
0.681691005234331
0.772583143552038
0.863475292635986
0.954367421831967
1.04525954098319
1.13615169908435
1.22704382844992
1.31793630875579
1.40882844744723
1.49972022566834
1.59061233791201
1.68150447536686
1.77239665196765
1.86328872057361
1.95418023971827
2.04507051293121
2.13595791842333
2.22683797127556
2.3177028694505
2.40853949504415
2.49932772206321
2.59004132885121
2.68064459924325
2.7710946967532
2.86134258821677
2.95133034872722
3.04099376982169
3.13026902182699
3.21909258333394
3.30739505755041
3.3951246577519
3.48223044533596
3.56867537705722
3.65443622829399
3.73955796210674
3.82414057777736
3.90832479404818
3.99232457411787
4.07636856571835
4.16067816678227
4.2454683134877
4.33092114685341
4.41717490558501
4.50431083890413
4.59232434798031
4.68114946891665
4.77066682501506
4.86072232795228
4.95115956278214
5.04184854484751
5.13268896800114
5.22359444566717
5.3144945223205
5.40533333779305
5.49606563227587
5.5866543419398
5.67706915842586
5.76728859824479
5.85729635480708
5.94707694262788
6.03662235026211
6.12593356774498
6.21501165830555
6.303862260927
6.39250111115309
6.4809524974871
6.569243679763
6.65739872467573
6.74545333790358
6.83343970224649
6.92138433389839
7.00931459007381
7.09727191900652
7.18527689410406
7.27335258890633
7.36153063041451
7.44983104208903
7.53827001177392
7.62686847626418
7.71563967195584
7.80458513427126
7.8937177174862
7.98303857235359
8.07255004877921
8.16225098258574
8.25212906711856
8.34217899176938
8.43238872470319
8.52274386104799
8.61322989191376
8.70382739618798
8.79451890503749
8.88528575520668
8.97610812582119
9.06696806766799
9.15784832702631
9.24873808275478
9.33962960297428
9.43052185653515
9.52141390561846
9.61230602614288
9.70319826708591
9.79409013180646
9.88498230069013
9.97587455628459
10.0667664026025
10.1576588239262
10.2485510423487
10.3394431929344
10.4303353467001
10.5212270266721
10.6121195885962
10.7030111987538
10.7939035561902
10.8847956833977
10.9756878823323
11.0665802857097
11.1574720612937
11.2483643381532
11.3392564259896
11.4301487402887
11.5210409735496
11.6119327010165
11.7028246314489
11.7937170355701
11.8846092214054
11.975501661193
12.0663936716465
12.1572853397772
12.2481775723214
12.3390700129464
12.429962507247
12.5208545813662
0.0454412931299854
0.13632387336422
0.227206452208148
0.318089034605794
0.408971613257069
0.499854195823082
0.590736781048628
0.681619353697737
0.772501938441086
0.863384533859876
0.95426710955842
1.04514967529691
1.13603227965688
1.22691485552357
1.31779777937111
1.40868036448487
1.49956259216848
1.59044515105767
1.68132773494545
1.77221035764902
1.86309287326948
1.95397484094682
2.04485556312512
2.13573343122442
2.22660399808994
2.31745952773228
2.40828701277706
2.49906649645213
2.58977198050423
2.68036804656681
2.77081222322474
2.86105588993028
2.95104160912527
3.04070571517832
3.12998491830798
3.21881623266353
3.30713084373098
3.39487740980595
3.48200541271088
3.56847813109256
3.65427252780017
3.73943321200909
3.82405932905559
3.90829042911548
3.99233867713399
4.07643079634907
4.16078632219271
4.2456183888427
4.33110760354905
4.41739104981679
4.5045492878485
4.59257774966534
4.68141102719675
4.77093072111216
4.86098402885299
4.95141583495327
5.04209725604241
5.13292882960523
5.22382489307365
5.31471558473449
5.40554551466385
5.4962698029861
5.58685169789003
5.67726114813076
5.76747684723655
5.85748263377092
5.94726314990724
6.03681045295571
6.12612552032989
6.21520941793284
6.30406772572182
6.39271605664821
6.48117848288681
6.56948205090448
6.6576506132562
6.74571958328937
6.83372086866479
6.92168077200845
7.00962641011567
7.09759888613452
7.18561860779272
7.27370844426288
7.36189976241659
7.45021241573657
7.53866245806687
7.62727064382655
7.71605010787284
7.80500236550641
7.89414016437161
7.98346464870913
8.07297814233308
8.16267949913004
8.25255651136882
8.34260391436734
8.43280977811233
8.52315981888494
8.61363965174173
8.70423001916093
8.79491359812875
8.88567188521113
8.9764852258359
9.06733582224462
9.15820658057615
9.24908678622841
9.33996875457866
9.43085145293622
9.52173394911555
9.61261651620242
9.70349920270435
9.79438151615752
9.88526413120923
9.97614683224013
10.0670291274465
10.1579119928087
10.2487946569819
10.3396772538892
10.4305598539508
10.5214419842134
10.6123249889908
10.7032070500284
10.7940898520421
10.8849724257694
10.975855070618
11.0667379181862
11.1576201432545
11.2485028653714
11.3393854000592
11.4302681592997
11.5211508381857
11.612033015543
11.7029153941542
11.7937982424594
11.8846808743196
11.9755637579905
12.066446215948
12.1573283344695
12.2482110126447
12.3390938971459
12.42997683487
12.5208593559563
0.0454362865100419
0.136308853558103
0.227181419228252
0.318053988420441
0.408926553899653
0.499799123258709
0.590671695253588
0.681544254784137
0.772416826301122
0.863289408398381
0.954161970951182
1.04503452363272
1.13590711459146
1.2267796773109
1.31765258490934
1.40852515679325
1.49939737443348
1.59026992032674
1.68114249099582
1.77201510013462
1.86288760314592
1.9537595598053
2.04463027141917
2.13549814325226
2.22635876773097
2.31720447809167
2.40802238280744
2.49879270246894
2.58948967297468
2.68007818808435
2.77051615901841
2.86075539769788
2.950738977361
3.04040380132518
3.12968714567673
3.21852658589107
3.30685391774781
3.39461826597469
3.48176955304724
3.56827139499229
3.6541009511499
3.73930245978371
3.82397417119755
3.9082544107762
3.99235345869103
4.07649602109253
4.16089968130189
4.24577568479784
4.33130303126752
4.41761759343473
4.5047992093307
4.59284334331138
4.6816851698747
4.77120731408258
4.86125832100455
4.95168443717803
5.0423579335056
5.1331802316941
5.22406642801746
5.31494728314437
5.40576790001976
5.49648379698094
5.58705854924656
5.67746237505639
5.76767415347286
5.85767787519633
5.94745831620035
6.03700760585851
6.12632670835533
6.21541669239668
6.30428307607388
6.39294134384771
6.48141534115613
6.56973189083329
6.65791462099113
6.74599863858123
6.83401556288737
6.92199147269229
7.00995323280454
7.09794158468335
7.18597676240538
7.27408142094293
7.3622866545225
7.45061213847084
7.53907378618499
7.62769216093316
7.71648029114884
7.8054396710427
7.89458293649732
7.98391122492812
8.07342683280193
8.16312863293879
8.25300452129025
8.34304928131021
8.43325108970621
8.52359578974154
8.61406912638292
8.7046520135702
8.79532728112467
8.88607659312346
8.97688046929774
9.06772127063071
9.15858207081198
9.24945226690446
9.34032422381554
9.43119690723939
9.52206939089501
9.61294194489887
9.70381461726603
9.79468691991081
9.88555952146616
9.97643220823386
10.0673044927952
10.1581773424289
10.2490499926684
10.3399225762402
10.4307951629395
10.5216672840267
10.6125402718336
10.7034123243135
10.7942851111635
10.8851576717633
10.9760303028491
11.0669031348485
11.1577753498965
11.2486480575625
11.33952057947
11.4303933239287
11.5212659887491
11.6121381565116
11.7030105237338
11.7938833564633
11.8847559746771
11.9756288424569
12.0665012883183
12.1573733977694
12.2482460618854
12.3391189304881
12.4299918518394
12.5208643602667
0.0454310390061403
0.136293111102697
0.227155181834331
0.318017256054802
0.408879326597299
0.499741400983065
0.590603477979806
0.681465542629717
0.772327619153071
0.863189706156954
0.954051773800626
1.04491383166609
1.13577592744794
1.22663799525665
1.31750040469331
1.40836248157992
1.49922420756265
1.59008625870381
1.68094833438728
1.77181044817777
1.86267245684233
1.95353392082275
2.04439414023306
2.13525153484874
2.22610173858176
2.31693715722484
2.40774502067228
2.49850573541091
2.58919378275672
2.6797743836128
2.77020585024498
2.86044044785033
2.95042178503941
3.04008736145241
3.12937504626929