/*--------------------------------*- C++ -*----------------------------------*\
| =========                 |                                                 |
| \\      /  F ield         | OpenFOAM: The Open Source CFD Toolbox           |
|  \\    /   O peration     | Version:  3.0.1                                 |
|   \\  /    A nd           | Web:      www.OpenFOAM.org                      |
|    \\/     M anipulation  |                                                 |
\*---------------------------------------------------------------------------*/
FoamFile
{
    version     2.0;
    format      ascii;
    class       volScalarField;
    location    "7000";
    object      ccy;
}
// * * * * * * * * * * * * * * * * * * * * * * * * * * * * * * * * * * * * * //

dimensions      [0 1 0 0 0 0 0];

internalField   nonuniform List<scalar> 
14000
(
0.00329846574773673
0.0032984657481278
0.00329846574782696
0.00329846574789716
0.0032984657480701
0.00329846574764309
0.0032984657478975
0.0032984657484593
0.00329846574711258
0.00329846574776647
0.00329846574839242
0.00329846574841287
0.00329846574588592
0.00329846575026207
0.00329846572330235
0.00329846577224579
0.00329846574649943
0.00329846575075034
0.00329846574487705
0.00329846574823132
0.00329845554407347
0.00333044811361727
0.00352998873647788
0.00410874541752779
0.00528310994872013
0.00726599647473961
0.0102660746273342
0.0144939943235704
0.0201365436079655
0.0273838997077777
0.0364119924506326
0.0473546570941704
0.060351365043912
0.0755222650374162
0.0929393494736934
0.112639899701668
0.13466774566584
0.158995092359928
0.185576701632396
0.214344309497125
0.245194141923703
0.27787172672506
0.311998322215561
0.347162208527434
0.38280130879346
0.418342174631028
0.453225867549339
0.486874437122825
0.518716915934363
0.548199800471908
0.574817529409588
0.598205725529233
0.61809126446793
0.634372147333497
0.647155801329083
0.656676448440276
0.663191329538694
0.666894295983949
0.667972373362221
0.666602228319004
0.662938079564363
0.657125050467084
0.649303752981185
0.639599039992539
0.628144252082011
0.615052509794785
0.600414018893276
0.584332278908777
0.56693703846219
0.548324903753034
0.528605403206672
0.507907308387888
0.486387747958369
0.464186095029544
0.441427066922918
0.418264164635788
0.394834217359936
0.37123994367126
0.347594663056479
0.32405990929509
0.300713297575381
0.277655486251003
0.255016605793389
0.232889271579374
0.211356691951329
0.19053402583542
0.170499515902622
0.151307554630845
0.133059313158219
0.11581015536411
0.0996434456512953
0.0846208042055575
0.0707697191802848
0.0581492934703612
0.0468008818890798
0.0367617446198777
0.0280521883051716
0.0206739299732035
0.0146410840651089
0.00995363983815968
0.00659099403721122
0.00453583892797705
0.00361824521775687
0.00336010098996222
0.00330854615602784
0.00329979817116679
0.0032986508650925
0.00329848398142139
0.0032984657783771
0.00329846573480162
0.00329846575880342
0.00329846572922207
0.00329846578514151
0.00329846569221932
0.00329846579820014
0.003298465696583
0.00329846579799735
0.00329846572707142
0.00329846574124057
0.00329846578832042
0.00329846569315145
0.00329846580313792
0.0032984656885355
0.00329846578998145
0.00329846572893395
0.00329846575772211
0.00329846574109803
0.00329846574314964
0.00329846574631233
0.0032984657756991
0.00329846573325123
0.00329846574521557
0.0032984657472988
0.00329846572887251
0.00329846577492792
0.00329846575090225
0.00329846573860627
0.0032984657375119
0.00329846573515135
0.00329846576455157
0.0100541687800971
0.0100541687805267
0.0100541687801962
0.0100541687802733
0.0100541687804633
0.0100541687799942
0.0100541687802737
0.010054168780891
0.0100541687794113
0.0100541687801297
0.0100541687808175
0.0100541687808399
0.0100541687780636
0.0100541687828717
0.0100541687532512
0.010054168807025
0.0100541687787376
0.0100541687834082
0.0100541687769552
0.0100541687806403
0.010054158630021
0.0100859845178308
0.0102844855323172
0.0108602269154239
0.0120284730781479
0.014001028911559
0.0169854769091735
0.0211913695400015
0.0268045217162528
0.0340141198942627
0.0429951773543484
0.0538808321364293
0.0668098290910552
0.0819016910896191
0.0992280355564543
0.118825949776302
0.140739035597726
0.164939642844718
0.191382769588988
0.220000507391766
0.250689623524244
0.283196969942009
0.317145778438436
0.352126471991849
0.387579900586311
0.422935602712056
0.457637551516902
0.491110807615741
0.522787379713286
0.552116649290574
0.57859569105264
0.601862027745589
0.621643958241281
0.637840015159712
0.650557065262993
0.660028109578754
0.666509048186255
0.670192722216169
0.671265182716894
0.669902175847001
0.666257116840622
0.660474373011199
0.652693823774633
0.643039671579304
0.631644562334156
0.61862102726536
0.604058802173707
0.588060847359844
0.570756235410743
0.552241069262036
0.532624306555605
0.512034048013376
0.490626603440733
0.468540620009198
0.445900165032501
0.422857939891528
0.399550060801144
0.376078711373991
0.352556620491641
0.329144480452208
0.305919502245751
0.282981819609875
0.260460885194436
0.23844883185393
0.217028434485344
0.196314251954728
0.176384119478499
0.157292146063944
0.139138975762314
0.121979684090183
0.105897201036766
0.0909528258614128
0.0771739034454285
0.0646192287678956
0.0533299412071776
0.0433431068014097
0.0346789263978332
0.0273391080899384
0.0213376927517476
0.0166746697262325
0.0133295430631422
0.0112850952240095
0.0103722821825141
0.0101154828978633
0.010064196670881
0.0100554942580761
0.0100543529369584
0.0100541869149215
0.0100541688137614
0.0100541687658853
0.0100541687922561
0.0100541687597543
0.0100541688211947
0.0100541687190994
0.0100541688355418
0.010054168723895
0.0100541688353173
0.0100541687573926
0.0100541687729595
0.0100541688246864
0.0100541687201247
0.010054168840966
0.0100541687150534
0.0100541688265101
0.0100541687594388
0.0100541687910691
0.0100541687728025
0.0100541687750563
0.0100541687785336
0.0100541688108182
0.010054168764182
0.010054168777327
0.0100541687796158
0.0100541687593719
0.0100541688099718
0.0100541687835744
0.0100541687700649
0.0100541687688633
0.0100541687662707
0.0100541687985707
0.0171349096746416
0.0171349096751136
0.0171349096747505
0.0171349096748352
0.017134909675044
0.0171349096745285
0.0171349096748356
0.0171349096755138
0.0171349096738881
0.0171349096746775
0.0171349096754331
0.0171349096754578
0.0171349096724073
0.01713490967769
0.017134909645146
0.0171349097042273
0.0171349096731479
0.0171349096782794
0.0171349096711895
0.0171349096752385
0.0171348995807515
0.0171665507670977
0.0173639621535369
0.0179365431622626
0.0190983765817613
0.021060104680597
0.0240281705093431
0.028210976288561
0.033793316978589
0.0409633405974921
0.0498950997808678
0.0607210018064817
0.0735790300138566
0.0885880512955597
0.105819290058209
0.125309630184016
0.147102434449396
0.171170204469721
0.19746818590457
0.225928842959996
0.256449510248552
0.288778427569903
0.32254089514922
0.357329581918209
0.392588405545744
0.427750035115058
0.462261495508097
0.495551003253786
0.527053686360801
0.556221950098793
0.582555632017015
0.605694246232733
0.625367583329219
0.641474733019053
0.654121974667434
0.663541029607435
0.669986392616905
0.673649845993443
0.674716419359639
0.673360894098482
0.669735843309202
0.663984841872552
0.656247001420505
0.64664584266836
0.635313283428951
0.622361237255458
0.607878947374872
0.591968808912748
0.57475918589518
0.556345653781455
0.536836571966145
0.516359338053117
0.495069403591869
0.473104654888944
0.450588477974358
0.427672736141601
0.404492798323966
0.381150287433683
0.357757313328853
0.334473686340367
0.31137619381446
0.28856441962896
0.266167106001474
0.244275880048129
0.222973062366957
0.202372582890938
0.182551849781862
0.163564674935741
0.145511149957165
0.128446048128446
0.112451844121371
0.0975895008324024
0.0838862129756612
0.0714004528003048
0.0601731338858352
0.0502411187837224
0.0416244974565022
0.0343249686339021
0.028356496082077
0.0237190692355704
0.0203923046101794
0.0183590792040342
0.0174512768476887
0.0171958872171656
0.0171448825211643
0.0171362278728272
0.0171350928249861
0.0171349277056633
0.0171349097116284
0.0171349096590272
0.0171349096880006
0.0171349096522907
0.0171349097197949
0.017134909607625
0.0171349097355574
0.0171349096128932
0.0171349097353109
0.017134909649697
0.017134909666799
0.0171349097236315
0.0171349096087509
0.0171349097415174
0.0171349096031779
0.0171349097256369
0.0171349096519436
0.0171349096866956
0.017134909666628
0.0171349096691039
0.0171349096729226
0.0171349097083954
0.0171349096571562
0.0171349096715975
0.0171349096741128
0.0171349096518708
0.0171349097074641
0.017134909678463
0.0171349096636192
0.0171349096622987
0.0171349096594499
0.0171349096949394
0.0245563270034515
0.0245563270039702
0.0245563270035712
0.0245563270036643
0.0245563270038936
0.0245563270033273
0.0245563270036647
0.0245563270044098
0.0245563270026237
0.0245563270034909
0.0245563270043211
0.0245563270043483
0.0245563270009968
0.0245563270068007
0.0245563269710445
0.0245563270359576
0.0245563270018104
0.0245563270074485
0.0245563269996587
0.0245563270041074
0.0245563169684732
0.0245877850477575
0.0247840543797882
0.025353322957514
0.0265084350956513
0.0284588145037013
0.0314097099681285
0.0355683181203892
0.0411183648968352
0.0482469099166627
0.0571269989517267
0.0678902733593662
0.0806739183302514
0.0955961132166181
0.112727670496042
0.13210526086043
0.153771996509546
0.177700538145483
0.203846390927013
0.232142409624201
0.262486523483198
0.294628426913371
0.328195588093194
0.362783029976645
0.397837885528267
0.432796105060384
0.467107912025805
0.500204830711622
0.531525258500737
0.560524769923829
0.586706098287646
0.609710844884766
0.629270363781107
0.645284328593794
0.657858403039139
0.667222967193803
0.673631042921507
0.677273302744266
0.678333705714916
0.676986022021216
0.673381942108407
0.667664210296862
0.659971133492925
0.650425517877393
0.639158518134519
0.626281400426332
0.611882891705809
0.596064794730657
0.578954730874094
0.560647722741786
0.541251502695628
0.520892731393477
0.499725960833545
0.477888279852176
0.455502360414764
0.432719187405562
0.409673346521008
0.38646587299766
0.363208227884249
0.340059297110751
0.317095423998593
0.294415616107224
0.2721478710425
0.250383285849082
0.229203704969266
0.208722399140596
0.189016328927546
0.170138994817691
0.152189909389052
0.135223529151056
0.11932185154817
0.104545486935246
0.0909214726321829
0.0785079426314091
0.067345573851124
0.0574710155652821
0.0489042415173722
0.0416469406237915
0.0357129958315979
0.0311023966732345
0.0277948775398594
0.0257734145159419
0.0248708639283272
0.0246169517765176
0.0245662421573921
0.0245576375713977
0.0245565090990617
0.0245563449254719
0.0245563270440893
0.0245563269862959
0.0245563270181291
0.024556326978895
0.0245563270530616
0.0245563269298184
0.0245563270703819
0.0245563269356067
0.0245563270701112
0.0245563269760433
0.0245563269948351
0.0245563270572785
0.0245563269310556
0.0245563270769291
0.0245563269249334
0.0245563270594796
0.0245563269785144
0.0245563270166951
0.0245563269946469
0.0245563269973666
0.0245563270015628
0.0245563270405368
0.0245563269842404
0.0245563270001077
0.0245563270028701
0.0245563269784326
0.0245563270395145
0.0245563270076502
0.0245563269913418
0.0245563269898894
0.024556326986761
0.0245563270257525
0.0323348117575258
0.0323348117580957
0.0323348117576573
0.0323348117577596
0.0323348117580116
0.0323348117573894
0.0323348117577601
0.0323348117585788
0.0323348117566163
0.0323348117575692
0.0323348117584814
0.0323348117585111
0.0323348117548288
0.0323348117612058
0.0323348117219198
0.0323348117932407
0.0323348117557229
0.0323348117619174
0.0323348117533587
0.0323348117582464
0.0323348017843187
0.0323660779465065
0.032561150275278
0.0331269470493553
0.0342750145231628
0.0362134992193838
0.0391463982016909
0.0432796445093018
0.0487958436215524
0.0558809143945985
0.0647068472938478
0.0754044809064612
0.0881101638737528
0.102941354927568
0.119968434795024
0.139227850718881
0.160762452264042
0.184545066864864
0.210531471663668
0.238654930774886
0.268813996683207
0.300759888384853
0.334122346321703
0.368498860739347
0.403339934612259
0.438084957366898
0.472187504929172
0.505082568494538
0.536211972109831
0.565034612037146
0.591056256647405
0.613920694821318
0.633360919331905
0.649277215803583
0.66177460269347
0.67108205429884
0.677451048703589
0.681071095260763
0.682125030945033
0.680785566095767
0.67720346603549
0.671520604561948
0.663874445136637
0.654387045026154
0.64318875906803
0.630390174885144
0.616079478315867
0.60035785124893
0.583352136672315
0.565156777739935
0.545878849610501
0.525644240540477
0.504606559694337
0.482902060072042
0.460652665216053
0.438008439339642
0.415103147217082
0.392037208136282
0.368921403117377
0.345913649214162
0.323089824361832
0.300548332069576
0.278416389507644
0.256784538145378
0.235734123361025
0.215377724978092
0.19579183443308
0.177029625819875
0.159190004831177
0.142327095965686
0.12652239647619
0.111836147219264
0.0982952205456391
0.0859573959172421
0.0748631022060398
0.0650487651465108
0.0565342366721671
0.049321195414975
0.0434234396129744
0.0388409589033303
0.0355536112219583
0.0335444765084385
0.0326474303727992
0.0323950667877117
0.0323446664431468
0.0323361143279068
0.0323349927478848
0.032334829565076
0.0323348118021753
0.0323348117386766
0.0323348117736523
0.0323348117305452
0.0323348118120335
0.0323348116766245
0.0323348118310621
0.0323348116829847
0.0323348118307647
0.032334811727413
0.032334811748059
0.032334811816665
0.0323348116779841
0.0323348118382568
0.0323348116712567
0.0323348118190855
0.0323348117301258
0.0323348117720778
0.0323348117478509
0.0323348117508417
0.0323348117554507
0.0323348117982724
0.032334811736417
0.032334811753852
0.0323348117568882
0.0323348117300372
0.032334811797149
0.0323348117621381
0.0323348117442206
0.0323348117426262
0.0323348117391867
0.0323348117820283
0.0404875435478355
0.0404875435484616
0.0404875435479799
0.0404875435480923
0.0404875435483692
0.0404875435476855
0.0404875435480928
0.0404875435489923
0.0404875435468361
0.0404875435478831
0.0404875435488852
0.040487543548918
0.0404875435448722
0.0404875435518788
0.0404875435087142
0.0404875435870763
0.0404875435458543
0.0404875435526606
0.0404875435432569
0.0404875435486272
0.0404875336393986
0.0405186086505595
0.040712426383357
0.0412745843130991
0.0424152681805364
0.044341285873105
0.047255322508595
0.0513619867402944
0.0568427096829916
0.0638822145464366
0.0726513857162187
0.0832802203867185
0.0959041904019125
0.110639999201573
0.127557574987052
0.146693130799374
0.168089240929986
0.191718907558083
0.217538192894409
0.245480790080663
0.275445904820825
0.307186354041128
0.340334259775946
0.374489698282537
0.409106704704972
0.443628273066648
0.477511493074411
0.510194989639788
0.541124178330015
0.56976143694362
0.595615714923092
0.618333093980571
0.637648284439901
0.653462213388575
0.665879222990571
0.675126814137317
0.6814548468577
0.685051611373626
0.68609876859497
0.684767918018555
0.681208855332019
0.675562541925377
0.667965557233036
0.658539173573451
0.647412907452501
0.634696635307296
0.620477975825745
0.604857460155151
0.587961115446612
0.569882777524563
0.550728832722232
0.530624359733584
0.509721979524212
0.488157069045876
0.466050767406447
0.443552173853261
0.420794192739825
0.397876597772324
0.374909457220698
0.352049672647523
0.329372634212771
0.306976112308878
0.284986506123223
0.263493774818839
0.242578740699545
0.222353259429849
0.20289333075218
0.184251786660256
0.166526896762333
0.149772437575711
0.13406938209191
0.119477583897241
0.106023742433647
0.093765265575872
0.0827423222171225
0.0729911037966503
0.0645313345781395
0.0573646824154602
0.0515048567604142
0.0469518473622478
0.0436856416436088
0.0416894283975419
0.0407981515549206
0.040547411045017
0.0404973348558535
0.0404888377356307
0.0404877233800186
0.0404875612351609
0.0404875435968928
0.0404875435271254
0.0404875435655541
0.0404875435181909
0.0404875436077245
0.0404875434589472
0.0404875436286315
0.0404875434659353
0.0404875436283054
0.0404875435147488
0.0404875435374343
0.0404875436128129
0.0404875434604412
0.0404875436365359
0.0404875434530506
0.0404875436154719
0.0404875435177307
0.0404875435638237
0.0404875435372063
0.0404875435404902
0.0404875435455558
0.0404875435926044
0.0404875435246443
0.0404875435437976
0.0404875435471344
0.0404875435176334
0.0404875435913701
0.0404875435529028
0.0404875435332173
0.0404875435314643
0.0404875435276859
0.0404875435747575
0.0490325285481053
0.0490325285487932
0.049032528548264
0.0490325285483875
0.0490325285486917
0.0490325285479406
0.0490325285483881
0.0490325285493764
0.0490325285470073
0.0490325285481576
0.0490325285492588
0.0490325285492947
0.0490325285448494
0.0490325285525478
0.0490325285051216
0.0490325285912205
0.0490325285459286
0.0490325285534068
0.0490325285430746
0.0490325285489752
0.0490325187075851
0.0490633828894955
0.0492558856625256
0.0498142296702633
0.0509471746816102
0.0528601255439544
0.0557543923087099
0.0598331955247357
0.0652767354411988
0.0722684820976944
0.0809781605838289
0.0915348862204612
0.104073211869892
0.118709049339935
0.135511852531057
0.154517589012441
0.17576854455516
0.199237904480383
0.224882029781627
0.252635063256578
0.282396895251218
0.313922017492833
0.346845048197884
0.380768774068429
0.415150932381575
0.449438295203884
0.483091635092955
0.51555338551016
0.546272726330235
0.574715684380546
0.600394543205591
0.622957787654946
0.642141928240448
0.657848564386647
0.670181329438445
0.679366180002209
0.685651280203127
0.689223642477439
0.690263695086133
0.688941873235698
0.685406956324933
0.679798949435642
0.672253505440215
0.662891073941187
0.651840292776052
0.639210292978794
0.625088098798227
0.609573559330474
0.592791846636059
0.574836159991096
0.555812163759375
0.535844088123441
0.515083518301996
0.493664913052321
0.47170858930316
0.449362634909919
0.426759052406199
0.403996938857851
0.381185615488371
0.358480919511328
0.335957729845507
0.313713153301239
0.291872731729435
0.27052581396969
0.249752674085881
0.229664408738777
0.210336502325399
0.191821428276874
0.174216789513032
0.157575997831033
0.141979476733103
0.127486673908801
0.114124107569422
0.10194879612529
0.0910006359843774
0.0813155730174141
0.0729131976765479
0.0657951665202522
0.0599750959405416
0.0554529758066891
0.0522089292557229
0.050226259173146
0.0493410292073752
0.0490919898661566
0.0490422534292663
0.0490338139497473
0.0490327071666663
0.0490325461091504
0.0490325286020062
0.0490325285253506
0.0490325285675733
0.0490325285155348
0.0490325286139064
0.0490325284504414
0.049032528636878
0.0490325284581192
0.0490325286365195
0.0490325285117529
0.0490325285366767
0.0490325286194993
0.0490325284520819
0.0490325286455639
0.0490325284439609
0.0490325286224196
0.0490325285150292
0.0490325285656718
0.0490325285364267
0.0490325285400354
0.0490325285456004
0.0490325285972939
0.0490325285226233
0.0490325285436702
0.0490325285473344
0.0490325285149215
0.0490325285959382
0.0490325285536742
0.0490325285320424
0.0490325285301185
0.0490325285259669
0.0490325285776844
0.0579886392631239
0.0579886392638798
0.0579886392632983
0.057988639263434
0.0579886392637682
0.0579886392629429
0.0579886392634346
0.0579886392645205
0.0579886392619175
0.0579886392631814
0.0579886392643912
0.0579886392644308
0.0579886392595465
0.057988639268005
0.0579886392158958
0.0579886393104963
0.0579886392607324
0.0579886392689488
0.0579886392575965
0.0579886392640797
0.0579886294938209
0.0580192727025862
0.0582103972476403
0.0587647438320237
0.0598895776452564
0.0617888329912716
0.0646623786978233
0.068711980425329
0.0741165483379423
0.0810582390139606
0.0897055624705237
0.1001867097267
0.112635270449264
0.127166326725712
0.14384883533257
0.162718506554637
0.183817323758073
0.207118664206155
0.232579202049222
0.260133551360915
0.289682320063233
0.320981755253056
0.353669091432189
0.38734995616869
0.421485967015486
0.455527855875313
0.488940255361864
0.521169590732313
0.551668987268182
0.579908296375177
0.605403296090966
0.627804990014831
0.646851775459732
0.662445956547762
0.674690423715127
0.683809514994803
0.690049617014143
0.693596402947313
0.694629009099902
0.693316650368567
0.689807040964471
0.684239183648377
0.676747760149078
0.667452357768139
0.656480693397014
0.643941116802901
0.629920029193822
0.614516564798497
0.597854999444464
0.580027865235014
0.56114006982564
0.541314954064783
0.520703017588276
0.499437756785172
0.47763862684425
0.455452655569461
0.433010900283342
0.410411748858708
0.387763739525909
0.365221593941091
0.342859655187086
0.320774334560602
0.299090275329265
0.277896186644033
0.257271767952696
0.237327320390704
0.218137788220966
0.199755269057241
0.182276667054504
0.16575501174605
0.150270150702574
0.135881106194837
0.122614206480972
0.11052606176961
0.0996562828754857
0.0900405582850561
0.0816983382018152
0.0746312673467749
0.0688528645728278
0.0643631198778517
0.0611422986403024
0.0591738233293687
0.0582949311802106
0.0580476748587265
0.0579982945214682
0.0579899154556025
0.0579888166099767
0.0579886566915146
0.0579886393223471
0.0579886392381223
0.0579886392845142
0.0579886392273367
0.0579886393354227
0.0579886391558161
0.057988639360663
0.0579886391642522
0.0579886393602681
0.0579886392231819
0.0579886392505675
0.0579886393415662
0.0579886391576196
0.0579886393702048
0.0579886391486974
0.0579886393447761
0.0579886392267808
0.0579886392824249
0.057988639250292
0.0579886392542567
0.0579886392603719
0.0579886393171707
0.0579886392351258
0.0579886392582505
0.0579886392622766
0.0579886392266638
0.057988639315679
0.0579886392692421
0.0579886392454761
0.0579886392433606
0.0579886392387994
0.0579886392956243
0.0673756562104089
0.0673756562112395
0.0673756562106005
0.0673756562107496
0.0673756562111169
0.0673756562102101
0.0673756562107504
0.0673756562119435
0.0673756562090834
0.0673756562104721
0.0673756562118014
0.0673756562118449
0.0673756562064783
0.0673756562157721
0.0673756561585171
0.0673756562624593
0.0673756562077812
0.0673756562168091
0.0673756562043358
0.0673756562114591
0.067375646515786
0.0674060581194329
0.0675957381241351
0.0681458949548293
0.0692622273132431
0.0711471282087709
0.0739989559053335
0.0780179511779091
0.0833816720371552
0.0902708984084089
0.0988528667763648
0.109254799388815
0.121609276376008
0.136030510184166
0.152586936544429
0.171313996076116
0.192253355187613
0.215378592306707
0.240646709806077
0.267992815694071
0.297318269986665
0.328381159594241
0.360821461186146
0.394247779893905
0.42812580026218
0.461910404571399
0.4950702712237
0.527056009335019
0.557324879404925
0.585350741411578
0.610653035991687
0.632885406667929
0.651788228334769
0.667264543730496
0.679416464654201
0.688466632704083
0.694659571489898
0.698179550489703
0.699204351893761
0.697901911573946
0.694418827302126
0.688893051291184
0.681458247399602
0.672233099138203
0.661344358140416
0.648899555317489
0.634984438858698
0.619697393730189
0.603161756404473
0.585469359714266
0.566724318196248
0.547049040578141
0.52659288867888
0.505488350220548
0.483853977187414
0.461835686331431
0.439563544285079
0.417135195609471
0.394658357865209
0.372286583478874
0.350093653919523
0.328175251501932
0.30665507767935
0.285621171135995
0.265152629058498
0.245358918777923
0.226314418442291
0.208070831762723
0.190724330509616
0.174327543564995
0.158959714853115
0.144679420765314
0.131512790464088
0.119516006317701
0.10872837980919
0.0991853296564247
0.0909061590675178
0.0838925003580134
0.0781577701466382
0.0737019585691469
0.0705054800862465
0.0685518825064279
0.0676796331122205
0.0674342455998778
0.0673852384962138
0.0673769227503342
0.0673758322247027
0.0673756734994352
0.0673756562754805
0.0673756561829384
0.0673756562339116
0.0673756561710868
0.0673756562898486
0.067375656092504
0.0673756563175799
0.0673756561017738
0.0673756563171468
0.0673756561665224
0.0673756561966121
0.0673756562965977
0.0673756560944851
0.0673756563280654
0.0673756560846813
0.0673756563001253
0.0673756561704769
0.0673756562316167
0.0673756561963094
0.0673756562006666
0.067375656207385
0.0673756562697919
0.0673756561796461
0.0673756562050551
0.0673756562094784
0.0673756561703473
0.0673756562681551
0.0673756562171318
0.0673756561910173
0.0673756561886935
0.0673756561836823
0.0673756562461192
0.077214311607285
0.0772143116081976
0.0772143116074956
0.0772143116076594
0.0772143116080629
0.0772143116070666
0.0772143116076602
0.0772143116089711
0.0772143116058286
0.0772143116073544
0.0772143116088151
0.0772143116088627
0.0772143116029663
0.0772143116131778
0.0772143115502681
0.0772143116644762
0.0772143116043978
0.0772143116143173
0.077214311600612
0.0772143116084389
0.0772143019909749
0.0772444708459675
0.0774326368072949
0.0779784023001751
0.0790858241704386
0.0809556799779388
0.0837847447465753
0.0877716610013378
0.0930925695447495
0.0999268074174798
0.108440276299201
0.118759183057528
0.131015049715709
0.145321177236952
0.161745455234301
0.180323041684571
0.201095270785002
0.224035931792785
0.249102371093135
0.276230214376525
0.30532160993098
0.33613657298596
0.368317954317615
0.401477479896797
0.43508509696159
0.468600037881215
0.501495221516048
0.53322564214499
0.563252894427896
0.591055039760293
0.616155357569414
0.638210258303978
0.65696218958807
0.672314968328055
0.684369890239985
0.693347818881062
0.699491325209187
0.702983207472359
0.703999828594895
0.702707783883784
0.699252500953844
0.693770830922694
0.686395370803427
0.677243856829975
0.666442028933533
0.654096559771706
0.640292513094582
0.625127488555638
0.608723838075443
0.591172661574248
0.57257724230731
0.553059012036609
0.532766140016697
0.511830056776742
0.490368367636616
0.468525824842132
0.446431456668382
0.424182128604834
0.401884698052583
0.37969149195424
0.357675703147296
0.335932249885547
0.314583846497031
0.293717828940225
0.273412663165594
0.253776942578628
0.234884451982345
0.216786482229472
0.199578437468552
0.183312526658711
0.168067361028905
0.153901049646746
0.140839512996428
0.128938485022416
0.118236963476817
0.10877008432868
0.100556996719508
0.0935993199641929
0.0879103635261507
0.0834901176890341
0.0803191531654781
0.0783811491360153
0.0775158621072427
0.0772724333213174
0.0772238174096672
0.0772155680299032
0.0772144862252748
0.0772143287498812
0.0772143116787831
0.0772143115771015
0.0772143116331088
0.0772143115640806
0.0772143116945686
0.0772143114777371
0.0772143117250395
0.0772143114879207
0.0772143117245645
0.077214311559064
0.0772143115921257
0.0772143117019866
0.0772143114799124
0.0772143117365605
0.0772143114691417
0.0772143117058607
0.0772143115634101
0.0772143116305861
0.0772143115917938
0.0772143115965803
0.0772143116039626
0.0772143116725326
0.0772143115734846
0.0772143116014007
0.0772143116062638
0.077214311563267
0.0772143116707336
0.0772143116146718
0.0772143115859788
0.0772143115834251
0.0772143115779192
0.0772143116465214
0.087526335159858
0.0875263351608606
0.0875263351600893
0.0875263351602693
0.0875263351607127
0.0875263351596179
0.0875263351602701
0.0875263351617106
0.0875263351582577
0.0875263351599342
0.0875263351615391
0.0875263351615916
0.0875263351551125
0.0875263351663327
0.0875263350972095
0.0875263352226979
0.0875263351566855
0.0875263351675848
0.0875263351525259
0.0875263351611258
0.0875263256256723
0.0875562400522948
0.0877428191230526
0.0882839819949564
0.0893820646636947
0.0912361515168958
0.0940413581657488
0.0979946519911502
0.103270688403038
0.110047292139425
0.118488965854473
0.128720852184387
0.140873364138201
0.155058847341173
0.17134461900886
0.189765540873908
0.210362598934799
0.233109803406665
0.257964861237025
0.284863940686757
0.313710016233915
0.344265124189641
0.37617512772465
0.409055023820026
0.442379227527286
0.47561153062655
0.508229296473726
0.539692115500799
0.56946612504038
0.597033790026668
0.621922413343374
0.643791305477139
0.662385086507689
0.677608384773271
0.689561640660983
0.698463854155924
0.70455554961745
0.708017983280509
0.709026030518277
0.707744881571642
0.704318737595861
0.698883295633692
0.691570034521201
0.682495697636833
0.671784964530503
0.659543608312927
0.645855975362673
0.630818842235898
0.614553528929581
0.597150367191238
0.578711768995636
0.559358142136588
0.539236405922356
0.518476882828921
0.497196185960501
0.475537847030984
0.453629805997105
0.431568111796534
0.409458720280642
0.387452673947195
0.365622548684721
0.344062461918691
0.322894093361326
0.302204042434209
0.28207011348271
0.262599983934796
0.243866816708958
0.225921469931376
0.208858543196097
0.19272980534098
0.177613204452648
0.16356635979976
0.15061497314414
0.138814308432817
0.128203034595194
0.11881599124667
0.110672166050806
0.103773164698192
0.0981321843387798
0.0937492154149634
0.0906049924056243
0.0886833321865591
0.0878253425118349
0.0875839666961034
0.0875357607990197
0.0875275809780211
0.087526508314768
0.0875263521485829
0.0875263352384181
0.0875263351266932
0.0875263351882324
0.0875263351123859
0.0875263352557635
0.0875263350175127
0.0875263352892441
0.0875263350287037
0.0875263352887203
0.0875263351068745
0.0875263351432011
0.0875263352639138
0.087526335019905
0.0875263353019032
0.0875263350080689
0.0875263352681701
0.0875263351116486
0.0875263351854616
0.0875263351428359
0.0875263351480957
0.0875263351562075
0.0875263352315498
0.0875263351227195
0.0875263351533936
0.0875263351587337
0.0875263351114928
0.0875263352295741
0.0875263351679743
0.0875263351364474
0.0875263351336413
0.0875263351275911
0.0875263352029701
0.0983345020550109
0.0983345020561127
0.0983345020552651
0.0983345020554629
0.0983345020559501
0.0983345020547472
0.0983345020554639
0.0983345020570466
0.0983345020532526
0.0983345020550948
0.0983345020568582
0.0983345020569158
0.0983345020497969
0.0983345020621254
0.0983345019861739
0.0983345021240584
0.0983345020515252
0.0983345020635012
0.0983345020469545
0.0983345020564041
0.0983344926069491
0.0983641403635069
0.0985490561914122
0.0990853949934701
0.100173689120379
0.102011248325541
0.104791448970031
0.108709502697202
0.113938508059571
0.120654704734959
0.129021129041792
0.139161808183432
0.151205992798337