/*--------------------------------*- C++ -*----------------------------------*\
| =========                 |                                                 |
| \\      /  F ield         | OpenFOAM: The Open Source CFD Toolbox           |
|  \\    /   O peration     | Version:  3.0.1                                 |
|   \\  /    A nd           | Web:      www.OpenFOAM.org                      |
|    \\/     M anipulation  |                                                 |
\*---------------------------------------------------------------------------*/
FoamFile
{
    version     2.0;
    format      ascii;
    class       volScalarField;
    location    "7000";
    object      ccz;
}
// * * * * * * * * * * * * * * * * * * * * * * * * * * * * * * * * * * * * * //

dimensions      [0 1 0 0 0 0 0];

internalField   nonuniform List<scalar> 
14000
(
0
2.44897772968049e-18
2.44897747324222e-18
-4.89795506616739e-18
9.63735264552416e-20
-4.80158110657534e-18
4.89795506673433e-18
7.250560510328e-18
-2.44897686429904e-18
7.34693226503538e-18
0
0
-2.54534934511701e-18
-9.63735264552406e-20
-2.44895656811891e-18
-4.89799657644204e-18
0
-4.89795993044567e-18
-4.80157639091585e-18
-7.25055992710997e-18
0
0
0
-4.90022160682004e-18
0
0
-4.82622877747171e-18
0
-4.96330418037739e-18
2.40090546766711e-18
0
-9.67780724273077e-20
-9.68563542097903e-20
-2.51895340294533e-18
0
9.71303359898541e-20
0
5.72164208509714e-18
-2.94909239222471e-18
1.47591373119973e-18
-1.43557385960656e-18
0
8.41954530704384e-18
-7.2401382547319e-18
0
3.86912355598243e-18
0
0
0
-2.2577555753488e-18
-8.95696028685158e-18
2.26366311660234e-18
4.80545090866568e-18
-7.11823409824655e-18
2.56294191895724e-18
0
0
0
2.60593662730535e-18
-7.41108411586064e-18
-2.4884820594639e-18
-2.46824931910823e-18
-7.23126988183741e-18
9.56917659305393e-20
2.28048750227845e-18
0
-9.54347262986508e-20
0
9.5319500039962e-20
0
0
1.96425535252254e-18
-9.52109759665938e-20
3.73359589004742e-18
-3.73302993423774e-18
0
-8.82378722813379e-18
3.46115847437832e-18
-5.11217295827297e-18
4.70415746978561e-18
-3.31334130242947e-18
1.61977393297445e-18
0
9.54905974672414e-20
1.52107132288843e-18
0
9.56272667326487e-20
2.78408776006858e-18
2.73747137864666e-18
-2.69488992492664e-18
5.21534944855999e-18
0
-2.49255729637922e-18
2.65602437285862e-18
7.50953354269639e-18
0
0
9.61516877042522e-20
-4.84037629791919e-18
0
-5.00299211596361e-18
4.80405683765075e-18
2.44918779694848e-18
0
-4.89799939584155e-18
2.44894988654271e-18
0
4.80151792551219e-18
-2.44900351458602e-18
0
0
-2.54533514009917e-18
-2.35263575478993e-18
0
0
0
2.44902023849045e-18
0
0
-9.63735264552188e-20
-2.54530439376751e-18
0
0
0
-2.35258784217638e-18
0
-7.25054168540798e-18
0
-2.35260265615393e-18
0
0
0
-7.25055754223998e-18
0
2.35262704777253e-18
-7.25056675730933e-18
0
0
-9.63735264552461e-20
2.35261820297453e-18
0
2.43751355388729e-18
-2.43751331048648e-18
0
1.9275006953939e-19
0
-7.11979003311043e-18
0
0
2.43751326154424e-18
0
2.43751378453562e-18
0
0
0
0
1.92750069667671e-19
2.4375156757737e-18
-4.68227177774164e-18
0
0
1.92752158243632e-19
-4.8755190283165e-18
4.87719549128021e-18
4.49535109378604e-18
2.2510531093353e-18
-2.44933534957081e-18
0
2.46869237502839e-18
-2.48385156160861e-18
7.51049461986575e-18
-4.8634642740315e-18
0
0
0
2.88840472612488e-18
0
-5.27268947956536e-18
0
-1.01997744270791e-18
8.96946394097136e-18
7.61064834354372e-18
-1.94336559053224e-19
0
0
-3.40181975513843e-18
-2.25806458726345e-18
1.74230813146313e-18
-1.94522996149008e-19
3.92562472431124e-18
6.92082706288505e-18
-9.22005985286572e-18
0
2.23278670684177e-18
2.26000267017018e-18
1.93275603088412e-19
-2.68151502926623e-18
0
0
-2.68109671208757e-18
1.92433860534525e-19
1.92299903359341e-19
2.43115871693074e-18
-2.40164064436099e-18
1.9839300514092e-18
-1.91885932285686e-19
4.38941118146613e-18
2.05643538303797e-18
-2.20384642183478e-18
-4.31707207276103e-18
0
-3.9396408672556e-18
-2.0186981765645e-18
-1.58943710093516e-18
7.13286488629253e-18
1.88236815602389e-18
6.78082942880181e-18
-1.91640817650071e-19
-6.45219241553495e-18
-6.29694782487814e-18
0
1.91779122140823e-19
-1.42102310415806e-18
4.55243088315001e-18
-5.82409754008139e-18
-5.71278358810664e-18
-2.80497711517579e-18
0
-2.90471283817857e-18
5.34402135048727e-18
0
5.20180544393785e-18
-1.00898668197174e-17
0
7.36678761166912e-18
0
2.48172201296939e-18
-2.46741201406008e-18
-1.92574203980226e-19
4.50973417127893e-18
4.88338457077946e-18
-1.24943812237832e-16
-1.16173905122755e-16
0
0
-7.3124614052458e-18
2.43754431431572e-18
0
4.87507605574942e-18
0
-1.92750068662756e-19
6.92699462943084e-18
4.87508700270782e-18
-1.92750074100959e-19
0
2.24472177679264e-18
-1.92750065461738e-19
4.6822429647095e-18
0
0
-2.43746907402026e-18
0
0
2.63029748268877e-18
-2.24474795353884e-18
7.31256395047238e-18
4.87501573230234e-18
0
0
0
2.43750151783519e-18
1.92750069772535e-19
0
0
-7.11985564366904e-18
-7.31254739568835e-18
0
-2.43750496466246e-18
4.87500611081883e-18
1.92750068193348e-19
2.14187286378336e-18
-1.92750214903138e-19
0
2.33462320190071e-18
0
0
-4.47649618938922e-18
-4.66924726702822e-18
0
0
2.33462358216237e-18
1.92750214878731e-19
2.14187144256023e-18
7.00387505303664e-18
0
0
4.66924425740294e-18
0
0
0
-2.14187600245934e-18
2.33465756706754e-18
0
1.92777077853237e-19
2.14465448476375e-18
0
0
0
-2.36437537935176e-18
2.18581173087886e-18
1.93083497060799e-19
0
9.41580589989509e-18
-4.97274186232246e-18
4.86503359800685e-18
0
-7.72590668262934e-18
-1.93716815164861e-19
-2.5950561991565e-18
0
1.58916217717349e-18
-1.64603362856999e-18
2.83365141856323e-18
4.73857471955478e-18
-3.48824442137778e-18
-5.33941801128353e-18
7.51865523175342e-18
-2.04186883735448e-18
3.81743361198616e-18
3.92983651261119e-18
-6.04577136484645e-18
-6.56820098537849e-18
0
1.93684156095898e-19
-4.50597993730897e-18
-2.36979560220998e-18
1.93086492399475e-19
-1.929064151909e-19
0
1.92580212814485e-19
1.92433990282114e-19
1.92300017463116e-19
0
-1.9206843736274e-19
-2.26809132690792e-18
-2.04071356993491e-18
0
-2.34554986295813e-18
0
5.82136700629428e-18
0
1.7879340014706e-18
0
-1.89075244893484e-18
-1.6555679872031e-18
-1.80465834835723e-18
1.57158901672943e-18
1.53179968608867e-18
1.49319611778213e-18
-1.91705273735254e-19
-3.0339618890171e-18
0
0
1.91864004610493e-19
-2.78712581740912e-18
0
0
0
2.5969491602031e-18
-7.29040209489428e-18
-2.33030089220485e-18
-2.29818596074908e-18
7.38443329491611e-18
-4.87129245645635e-18
0
6.7953823304611e-18
4.75357836024923e-18
1.92528455181201e-19
-1.92574342005834e-19
0
0
1.14135428133554e-16
1.24084736230324e-16
4.86204162764373e-18
0
0
0
2.33459455168998e-18
1.19131908996046e-16
1.08069300185905e-16
0
-4.47646750878034e-18
-2.14190158694649e-18
0
0
0
0
0
-2.33461809068324e-18
0
0
-4.28383081083366e-18
-1.07455295651982e-16
-1.10414462849139e-16
0
-2.33463074589372e-18
0
-4.47648889750239e-18
0
-2.33464454787396e-18
0
1.92750215152517e-19
-4.6692454847137e-18
-1.92750216551609e-19
2.14189374332995e-18
0
8.95296384123696e-18
0
0
0
-2.04370571287252e-18
4.28016236282745e-18
0
0
0
2.23645601199251e-18
2.04370582999176e-18
0
0
0
4.2801627483674e-18
0
-4.28015909655039e-18
-2.23645791970238e-18
0
0
-4.47291035781075e-18
-1.92750367052869e-19
0
0
0
-4.47297839035138e-18
0
0
0
0
1.92867125661766e-19
-2.44751203209171e-18
-2.26484704108038e-18
-1.93019700275663e-19
4.78606711279001e-18
2.12588564007041e-18
2.5402474162395e-18
9.13792028756465e-18
2.61537777017712e-18
0
-2.33376223067642e-18
-4.99236770512324e-18
-1.93835045801325e-19
0
2.66135919936374e-18
2.76947587756163e-18
-7.60850937804202e-18
1.31197371046028e-18
1.37607764289528e-18
-1.34733048482288e-17
-8.88836124593949e-18
5.09083468757758e-18
7.67091917916955e-18
9.75973690057776e-18
1.72804515644271e-18
-1.96512577822938e-18
-4.00307715123749e-18
-6.29066035985994e-18
2.2507398248248e-18
-2.46321808151787e-18
0
-6.67435004201399e-18
2.09636025163931e-18
0
1.92434126293538e-19
1.92300137074582e-19
0
-2.20367734760908e-18
2.17288799031548e-18
5.84133103152203e-18
2.10243993622184e-18
-3.74402764503207e-18
1.83165549244293e-18
1.91649217845442e-19
1.7481795574066e-18
0
3.32613947317802e-18
1.91579403033337e-19
1.91586100485108e-19
-6.53886635446824e-18
-1.91619038267883e-19
6.03720021558631e-18
-7.31449010371968e-18
1.38924163361381e-18
2.51986844754253e-18
5.48679272524467e-18
0
5.25123887906799e-18
-2.47602960462221e-18
0
-2.37857119052884e-18
-5.05401629103642e-18
-2.48659279271859e-18
-2.64181886119885e-18
1.92195502770226e-19
-2.38502675480719e-18
0
4.85792600977771e-18
6.54889897240489e-18
1.92435961054209e-19
0
2.26366077398193e-18
0
-1.92618805736698e-19
1.92662192374776e-19
2.04481476728991e-18
1.92736426631156e-19
4.47295861445092e-18
1.92749861556525e-19
0
-1.92750354224964e-19
0
-1.09357863635505e-16
-1.06999790758916e-16
2.23646414141779e-18
0
0
-2.42916601217974e-18
-6.51672815420962e-18
-4.28008726629083e-18
2.23649269043694e-18
2.23644102745722e-18
-2.23645134800468e-18
-1.92750363680957e-19
-4.47283263874803e-18
0
1.0896895959575e-16
1.07202638145575e-16
0
0
0
0
1.92750367451145e-19
0
0
2.04370387604604e-18
0
-2.23644233951643e-18
-4.28020140829049e-18
4.28016640488231e-18
0
2.04369826385069e-18
0
2.04371796255999e-18
0
8.18568174363037e-18
0
1.95004501303787e-18
0
0
4.09284055358675e-18
6.23563725832663e-18
0
4.09284037253679e-18
1.92750527004904e-19
-1.92750527002985e-19
-1.92750527240722e-19
8.37843816865287e-18
-1.95002801953076e-18
0
0
-1.95004698444903e-18
0
-2.14279577088425e-18
0
-1.92752616547697e-19
4.09326505707287e-18
0
-2.33818358841061e-18
0
2.15308702349108e-18
1.92911546518335e-19
-6.31670099895973e-18
4.17304459040289e-18
0
-4.05679849012935e-18
-6.55142117852247e-18
0
0
-4.3444661491213e-18
-1.9360785718987e-19
4.57782487032067e-18
-2.16766793169963e-18
0
7.42137279702345e-18
-1.94211481189831e-19
-2.9486487262063e-18
5.55218664343226e-18
4.49350018202767e-18
6.82266807517837e-18
-1.81568550495708e-18
0
-3.66706653942157e-18
0
-2.22219455024527e-18
0
1.90946542765806e-18
-6.01051091537829e-18
-4.31259395408276e-18
1.98139698128746e-18
0
0
-2.00028707299734e-18
0
1.92434268872262e-19
0
-4.27433253670938e-18
-1.92068603627328e-19
0
-3.71560787026391e-18
-1.9181061386517e-19
1.97784840018669e-18
5.62610784151748e-18
1.70819136972223e-18
0
1.81902247981419e-18
0
0
4.712224499944e-18
-1.21286236232425e-17
4.29128754951265e-18
0
0
5.68496737674576e-18
-5.36571481172516e-18
1.91778975451291e-19
5.1279344126906e-18
5.21069671226235e-18
0
-2.50596102106839e-18
-2.26937593901156e-18
-2.22778839406252e-18
4.57050678728868e-18
-2.34610011780042e-18
-6.55645684406709e-18
0
-2.4504353964008e-18
0
2.21409708817924e-18
2.00383515572469e-18
6.15849369848347e-18
1.92528736385227e-19
-2.15879426579321e-18
-1.9261896240339e-19
0
-2.1438127154926e-18
-2.14297399251958e-18
1.92747679563455e-19
6.04294119226974e-18
-1.9275046522791e-19
-1.92750513802687e-19
0
0
0
-1.95005254861165e-18
0
-8.57128508232849e-18
-2.14275707505234e-18
-4.09291006136965e-18
-1.95000955840171e-18
0
6.04284240102359e-18
-4.28558188235065e-18
4.28564693299433e-18
2.14275771950016e-18
0
0
0
-6.23559678967648e-18
1.95005180181427e-18
0
0
1.92750527200573e-19
1.92750524435912e-19
4.09282031602743e-18
1.95004316009179e-18
1.92750527107764e-19
1.95003186855057e-18
0
-6.0428917946925e-18
1.95003859345221e-18
1.92750528028545e-19
0
0
0
1.03560937806045e-16
9.57221198526e-17
-5.96755241876941e-18
0
2.05343420468174e-18
0
0
0
2.05343428548876e-18
0
1.92750694456095e-19
1.86068235903123e-18
1.86068522581148e-18
0
0
9.94540132933356e-17
1.89590981942225e-16
9.94396951243853e-17
5.96755307525451e-18
2.05343694230283e-18
0
-5.77540715268159e-18
-1.92777569455629e-19
-2.05590844653465e-18
0
0
-6.01698722553115e-18
0
2.09182101086772e-18
-1.93083931756695e-19
-4.25708431641966e-18
2.15395487894048e-18
-2.37825892158778e-18
-6.2792409687345e-18
0
-2.51129330345499e-18
2.18356778671701e-18
2.05886971957261e-18
-4.66256703376353e-18
-2.42125588529366e-18
2.71355347941131e-18
0
5.4804092836906e-18
-5.90815861181031e-18
0
-1.94591575214498e-19
5.00185564005824e-18
3.31188665560321e-18
5.50386133660673e-18
1.94272445273569e-19
-1.78824279294917e-18
0
-2.04352969974618e-18
0
-1.93275898019101e-19
2.03756982888349e-15
2.05334306075378e-15
0
-1.92580678128165e-19
-3.97687505991227e-18
0
2.04802502417411e-18
0
-7.59762049815532e-18
-3.92896642861879e-18
-5.60163428729712e-18
1.79563376107843e-15
1.76378803411144e-15
3.45115411136168e-18
0
-2.91372494447609e-18
-6.62971777340401e-18
3.14258388945464e-18
2.87522854103465e-18
4.77685459592667e-18
0
0
1.91670408312902e-19
2.52893603560164e-18
1.91738891409699e-19
2.79333650104316e-18
0
-2.49447953634645e-18
4.50763104174346e-18
1.91956019810023e-19
-4.52238794034786e-18
0
0
0
0
-3.99254391090625e-18
8.26910556636206e-18
-1.92340202492483e-19
-1.92388244287147e-19
-1.92436214816572e-19
0
2.07818653918119e-18
-4.13739631369513e-18
-2.06170635348359e-18
-1.92662520385685e-19
1.92704913017884e-19
1.92736755241634e-19
2.05345595619379e-18
-2.05345169691995e-18
0
3.91416817639876e-18
0
0
0
2.05344151462116e-18
-4.1068442773021e-18
0
0
-2.0534673193404e-18
0
-1.86071649618658e-18
0
-4.10686002169274e-18
0
2.05339851326331e-18
-9.9455942577407e-17
-1.936938612174e-16
-9.55270809113372e-17
1.92750696377179e-19
0
0
-1.92750694975229e-19
0
5.9676070505784e-18
-1.86067408236368e-18
0
3.91411726356556e-18
-1.92750696383168e-19
0
0
0
-1.01314384015954e-16
-9.77752386749605e-17
1.86069458664699e-18
0
-9.50205913392761e-17
-9.11589580123815e-17
-3.74359978207243e-18
0
0
-1.9681753262672e-18
3.93635135005758e-18
0
0
-1.7754247635121e-18
-1.92750869995762e-19
1.92750870257016e-19
0
1.96816005800839e-18
0
-9.30523643088946e-17
-1.84567073622055e-16
-9.90012441086872e-17
-1.9681755334498e-18
0
0
0
1.96904678233022e-18
1.97054106624529e-18
0
0
-1.92911914424794e-19
-1.99284576815719e-18
3.81657347780478e-18
-4.04054466206352e-18
-2.03980062409566e-18
0
-1.93316210564126e-19
-3.67752370206238e-18
1.9772024554074e-18
0
6.63660772381069e-18
2.1488994441501e-18
2.41768694350721e-18
2.50349314570852e-18
2.59703102029142e-18
2.50519744504179e-18
-2.61320889305237e-18
0
0
4.61745326045715e-18
-1.72275628090595e-18
-3.15860187571739e-18
-6.50481817003574e-18
0
1.89994146309575e-18
-1.54391023161712e-18
-1.93683593688583e-19
-3.76696339723814e-18
-1.99705291094178e-18
-1.94230094781024e-15
-1.94671483872794e-15
0
0
0
0
1.9217895642873e-19
-1.74745589536694e-18
5.54614632362213e-18
0
-1.91810675627016e-19
-1.72466868688093e-15
-1.66685575791062e-15
-1.55491425298245e-18
1.32656633206155e-18
-1.2897282449819e-18
-3.27152417172965e-18
0
0
-5.53677027712006e-18
2.79548224232159e-18
5.26750704091093e-18
0
5.40048847060924e-18
1.91738829810528e-19
0
0
1.91863853161618e-19
-2.34220675120891e-18
2.49028667593973e-18
0
2.02798012379166e-18
4.17790084962066e-18
2.15299804100039e-18
2.1234726183251e-18
4.19394441881599e-18
0
0
0
0
9.63036468768139e-18
-5.7828261354208e-18
5.75563876756448e-18
1.97606988711812e-18
1.77883352313707e-18
1.92705089947429e-19
-1.7756030372322e-18
-1.92748022983025e-19
0
-1.96815523813976e-18
-1.92750856446239e-19
0
0
0
-3.55086245515794e-18
-1.92750871979854e-19
1.77544758092233e-18
0
1.92750864848426e-19
-2.16089434670045e-18
-1.92750864869504e-19
0
-1.92750870737327e-19
0
1.96814134099429e-18
9.48296164462899e-17
1.89889449143915e-16
9.72273296516185e-17
0
0
0
-1.92750870539939e-19
0
0
0
1.77542279093124e-18
-1.96817495450889e-18
0
-1.9681921061101e-18
1.96817719151593e-18
5.90450867488296e-18
8.93084928370325e-17
8.40302067535341e-17
0
0
1.69407918258581e-18
1.92751054077508e-19
0
7.35456975672962e-18
-1.88682995155772e-18
-9.04864839775908e-18
-7.16181961839718e-18
0
9.0486480124195e-18
-1.88683039226797e-18
0
0
0
0
-5.27503116155072e-18
0
-1.92751053760666e-19
1.8868283247179e-18
-1.88683029746887e-18
0
0
-1.92762006008839e-19
1.92777938030952e-19
7.1707679765696e-18
-1.6988424611375e-18
0
0
-9.16593803981338e-18
3.65051463608025e-18
-1.74343578569568e-18
-1.76197824836816e-18
1.97821200080707e-18
0
2.04000047398854e-18
-1.93502368585735e-19
-2.12681017360377e-18
1.98716410275511e-18
2.049860419037e-18
-4.43618970467529e-18
1.94085594431033e-19
-4.77750830220154e-18
0
0
-2.79247480037426e-18
-5.79968964054048e-18
7.22409467853849e-18
1.65191969958088e-18
3.40138370906992e-18
4.84746233073736e-18
8.1508642743956e-18
-6.89710236219327e-18
0
-1.68373524384945e-18
1.89819363967914e-18
-1.93276067653748e-19
1.92506243267456e-18
1.92907212394684e-19
0
0
-1.92434739273589e-19
3.60888253927702e-18
5.64549225806461e-18
0
1.91972982691651e-19
3.41936229540838e-18
0
0
-1.32608844868978e-18
0
5.9854070194983e-18
5.84462859676055e-18
5.70281417769876e-18
-2.68595475212709e-18
-2.80853924125835e-18
0
0
-7.64701349998764e-18
0
0
1.91738765255662e-19
0
-2.14324322264376e-18
0
1.91907669057499e-19
2.00965191963934e-18
-6.29686994852733e-18
5.80470360024588e-18
-2.09355334799211e-18
-3.93394106552691e-18
0
-1.92243510251682e-19
3.97364888218237e-18
1.96647656657977e-18
0
-5.41475159375689e-18
7.48794079039777e-18
7.44487016332309e-18
0
1.92619479282651e-19
0
0
-3.77397662318281e-18
-5.27505448087204e-18
0
3.77362215634199e-18
1.92751040277076e-19
0
-1.88684802752067e-18
0
0
5.46770629487861e-18
1.8868520063586e-18
0
0
0
0
3.58088464907536e-18
1.69407513095607e-18
0
-9.04848739408052e-18
-7.16194826477282e-18
9.04847381815936e-18
9.04877216322135e-18
-3.5808868397541e-18
0
0
-5.46773087094643e-18
5.27498539909435e-18
1.88684645217969e-18
0
1.88682852371439e-18
-1.69407869483418e-18
-1.886818912087e-18
-3.58094094636632e-18
0
0
1.92751055195472e-19
1.9275105545123e-19
3.580928739902e-18
0
0
0
3.4256868249325e-18
0
6.85137308375183e-18
0
6.85137490244209e-18
0
0
1.92751246924325e-19
0
1.92751247209108e-19
3.42568945970013e-18
0
0
0
0
-1.9275124732373e-19
0
0
8.46797041364805e-18
0
1.9277813577755e-19
1.92801174336033e-19
8.33647777277933e-17
7.70541665463225e-17
0
-1.92962381422799e-19
0
-1.85661239819986e-18
-1.87435154280491e-18
0
1.72983268956318e-18
0
3.98633740112764e-18
0
0
1.95536788888443e-18
0
1.90679200507545e-18
0
0
7.51818625124631e-18
-4.95475567265021e-18
-5.35395030528415e-18
-2.87589552744312e-18
0
4.30923264475997e-18
-1.47928048331847e-18
3.22995493971326e-18
1.3581227642008e-18
0
1.60635404543697e-18
-1.81993425388248e-18
0
0
5.16656483806464e-18
1.85085689945266e-18
1.6533755409054e-18
0
1.82233107272448e-18
0
0
0
-3.27135618064102e-18
0
-3.1519977275701e-18
3.08791181422388e-18
-4.24615912847434e-18
2.95544123624475e-18
0
1.91584394952306e-19
-1.91579141960904e-19
0
5.24814844773419e-18
0
2.69319247157771e-18
2.63507298174523e-18
2.19595219708758e-18
-2.14314970824375e-18
-4.18513105805133e-18
-1.91820179174251e-19
-6.38259301215382e-18
3.91460721549517e-18
1.91955963931156e-19
-2.07247326933665e-18
2.03814417371959e-18
3.82051240036261e-18
5.54736224776655e-18
3.70857521130082e-18
0
-3.61682373121433e-18
1.92340541217847e-19
1.92388629448642e-19
-1.92436643279007e-19
1.92483519318808e-19
-1.8306988219716e-18
0
1.81640994288735e-18
0
-1.92705469861348e-19
0
0
-1.92750740885032e-19
-1.92751185821252e-19
-5.23496981152298e-18
0
5.23495679616728e-18
0
5.23492408650177e-18
-3.23291476899217e-18
1.92751242748893e-19
6.85124958611949e-18
5.23498992324147e-18
0
0
0
0
-3.42573186130901e-18
0
1.92751240704339e-19
0
-6.85146742261558e-18
-1.92751249135137e-19
0
-5.23489449855171e-18
-1.80921639135232e-18
0
1.809234521306e-18
3.42567050804874e-18
1.80921754220697e-18
-1.92751247048609e-19
0
0
-3.6184414194789e-18
1.80921386081602e-18
0
-1.92751248428668e-19
-1.9275124508837e-19
0
0
1.92751449220812e-19
-3.08483853833159e-18
1.92792225875619e-18
-8.09759857434325e-18
-7.94339808576081e-17
-7.6415269105386e-17
-7.59636195512208e-17
-7.57918850688082e-17
-6.36242957062105e-18
0
0
1.73517196535122e-18
0
0
0
0
-1.73516912591778e-18
1.92751449172662e-19
-1.92751448076144e-19
0
3.27793587781702e-18
3.4718729604695e-18
0
-7.79124984240112e-17
-7.32466903628783e-17
0
6.83347715610546e-18
1.93020782590965e-19
1.93084615730106e-19
1.7972785830588e-18
5.26146863720735e-18
3.49422493277378e-18
-1.93406148155627e-19
0
0
-2.00209255502835e-18
0
4.05356312217996e-18
-2.19781862093522e-18
-6.4473584379412e-18
1.94324721584558e-19
0
0
2.26531290615893e-18
-5.11361715488444e-18
0
2.739695250762e-18
3.88819661336931e-19
0
-1.48065502851482e-18
-1.70264325081021e-18
0
-1.93473235574798e-19
-6.46035300124716e-18
3.34673252068229e-18
1.92907587759579e-19
-3.16432475275467e-18
-3.5404543299692e-18
0
-5.05068830111771e-18
1.92179339596746e-19
-3.22814153390771e-18
0
1.46912895189571e-18
-4.32441472285405e-18
-3.83491623691115e-19
2.76326504059117e-18
-1.91649126521446e-19
2.63686096079573e-18
-1.91593271657362e-19
2.50813470181926e-18
0
1.91585746268611e-19
-2.32062312184679e-18
-1.91618641286587e-19
0
0
0
2.23636368484996e-18
3.99276704589062e-18
-6.23601323010747e-18
0
3.92670436915992e-18
-1.63736669359416e-18
-3.78028462052925e-18
0
0
0
7.09462592974268e-18
0
1.82606782264469e-18
-1.92340665196914e-19
6.97313953089399e-18
0
1.76543572929929e-18
1.92529567188004e-19
0
-3.09882794317939e-18
-7.95820791010591e-17
-8.91863792957192e-17
1.92737513209666e-19
-1.34969244763635e-18
0
-1.92751388239793e-19
-3.2776303545618e-18
0
0
3.47032762667953e-18
0
0
6.55525853847293e-18
0
-3.27764304162326e-18
0
1.92751443245264e-19
-5.01272776090113e-18
8.42538040388984e-17
8.74020681574764e-17
-1.92751455733039e-19
6.55529649742287e-18
3.27752737969221e-18
5.01282728155466e-18
7.59631593770475e-17
7.4055545530727e-17
-1.92751450022277e-19
0
-6.74792808262717e-18
1.92751445901135e-19
7.28784455808123e-17
8.5239096524101e-17
0
5.01273061040388e-18
7.61570751093395e-17
7.5911254632414e-17
1.92751450319093e-19
0
6.55515309067533e-18
0
-7.64798371974196e-18
3.13629177769694e-18
4.60806138558658e-18
3.13629154752724e-18
0
-6.0798309267011e-18
7.42369954961077e-17
7.37901793893334e-17
7.57087458549263e-17
7.09508207477543e-17
3.13629204178757e-18
4.80081392387264e-18
-1.92751661468989e-19
0
0
0
1.92751661392388e-19
0
0
-1.92751661176143e-19
1.92751660058744e-19
3.13633952641285e-18
1.92762619840495e-19
1.92778560400422e-19
0
4.81341465855819e-18
0
4.64705561165396e-18
-6.35399869788746e-18
0
-1.93084807845588e-19
4.78492101948423e-18
3.29418590963913e-18
0
8.40540717715997e-18
3.46961358057363e-18
0
0
0
0
1.9408207526485e-19
2.18203602338668e-18
-1.94322910901413e-19
-2.35534463625931e-18
-4.6996343287753e-18
-2.73467436945649e-18
5.26521100820119e-18
-2.5275359544382e-18
2.80719040406047e-18
-5.77096610421949e-18
-5.52342042083228e-18
0
1.93893140512682e-19
0
6.5026385709869e-18
-1.93276354008141e-19
-1.93087631702221e-19
-1.92907789146515e-19
0
0
-1.68919227776945e-18
6.32108875250701e-18
2.93577956827084e-18
0
0
0
0
-1.91745828916343e-19
-5.46452656916587e-18
2.38509970676073e-18
0
-2.45449920498215e-18
-2.58443256246404e-18
0
-2.46390909531137e-18
2.40550260887677e-18
6.85413101986613e-18
-2.10234426277296e-18
-1.91670043198073e-19
-2.19036402563812e-18
-1.95062315605085e-18
2.09639533401707e-18
1.91820062893504e-19
2.01196159576451e-18
0
2.12922967368573e-18
0
3.55309986131531e-18
0
0
-3.39345340616187e-18
-1.57869347166653e-18
3.31006928909865e-18
0
0
6.43406718051142e-18
-1.69338399666883e-18
-1.4915327417551e-18
0
1.9262007476636e-19
7.64027812661431e-17
7.47418482490017e-17
0
1.66453995151558e-18
-1.66453510447084e-18
1.92751600440943e-19
1.66454069702954e-18
-4.80075729862319e-18
-1.92751657412021e-19
4.60804188624621e-18
1.92751659856054e-19
0
1.92751656567301e-19
-3.13623598158978e-18
1.92751654936795e-19
1.92751667625085e-19
-1.92751654962304e-19
0
-7.25723144277647e-17
-7.34902113278602e-17
0
-1.92751654320304e-19
1.66449198714812e-18
0
-7.27647713171292e-17
-6.94779109029828e-17
0
0
-6.46533159427611e-18
6.07988692783765e-18
-7.42366373693334e-17
-6.91817778881911e-17
4.60806059467666e-18
0
-7.25731213518519e-17
-7.23186660939131e-17
-1.66451696877567e-18
0
0
0
-9.63783570151473e-20
1.59711576641145e-18
0
6.00295886338084e-18
-1.92751883448714e-19
4.59859472957913e-18
-2.80872754853301e-18
-6.00295992456551e-18
1.78986717093418e-18
-6.38846238364014e-18
-2.80872801574846e-18
1.59711590093105e-18
0
0
0
1.59712714704531e-18
0
0
4.40583892966116e-18
7.40732342582963e-18
0
1.92753975358338e-19
-1.21175508458839e-18
8.81579765527337e-18
-7.75706948049332e-16
-7.54317120989092e-16
0
-1.92913001438055e-19
-7.50431269039485e-18
1.62605499277921e-18
-1.6382326054329e-18
1.93155130951418e-19
-1.67260568891791e-18
0
1.72348297325659e-18
0
-1.79488902825526e-18
1.45191749542515e-18
1.93830131746835e-19
0
-2.21078903812847e-18
0
8.29202797535493e-18
2.06052126465161e-18
4.29567858489758e-18
0
2.32469411990116e-18
-2.41014777199466e-18
2.49149853317012e-18
5.13293968348958e-18
-3.02261472597605e-18
1.94094358698824e-19
0
-2.78975728292961e-18
-1.21911234710851e-18
0
0
0
0
0
0
-1.60845273661966e-18
-2.80129905178192e-18
0
5.82744703138959e-18
5.73373929304792e-18
5.44086779067597e-18
-1.91745846809079e-19
0
2.45841400322802e-18
1.91617630560787e-19
0
0
-2.22504901680225e-18
0
-8.83153624653548e-18
-4.30713973436725e-18
-2.19729096519302e-18
0
-4.00520896539879e-18
-5.77454763967792e-18
6.02652296849696e-18
0
1.91863619157262e-19
-1.89168719164017e-18
3.33033844767141e-18
-5.09156556291571e-18
0
-3.34363024615337e-18
0
4.96608308413697e-18
1.92243864708153e-19
4.84690195913166e-18
1.92340931401732e-19
1.92389073144089e-19
-2.88604613218897e-18
1.62463981362809e-18
8.92440018882299e-18
0
0
0
0
-4.79175290196911e-18
1.92749037653926e-19
0
1.92751822899691e-19
-1.59713371614694e-18
-8.81158075495541e-18
1.59713004021275e-18
0
0
-3.00146180411167e-18
2.80876270774823e-18
0
1.92751876886627e-19
0
-1.92751876913308e-19
3.00145977512368e-18
6.00294629670373e-18
0
-4.40576569270138e-18
3.00153157177992e-18
1.9275189124182e-19
-1.21163175998963e-18
-1.92751885953639e-19
0
0
7.40731143347586e-18
-6.1957077563019e-18
0
0
-6.0029538008406e-18
1.59711537515565e-18
0
0
1.92751883078035e-19
-3.19422254671471e-18
1.59711075697015e-18
0
0
0
2.68010398195409e-18
-2.6801037134899e-18
-2.87285589260845e-18
2.68010393046377e-18
5.74571133183739e-18
0
0
0
0
0
0
-2.68010198131634e-18
0
0
-2.6801255045912e-18
0
-5.74571687682699e-18
0
0
2.68010727903e-18
1.92754208768538e-19
2.68039968479774e-18
1.92779027069567e-19
7.2280256838719e-16
7.29256074429077e-16
0
0
1.9296329651594e-19
0
0
4.75993700831332e-18
0
4.6871950570497e-18
0
0
0
1.76352864709173e-18
-1.61882986098076e-18
1.93949498074469e-19
-1.73826076516387e-18
-5.81187325521478e-18
0
-1.77031243626563e-18
6.72727244866095e-18
0
2.21656822211557e-18
-2.29814981468029e-18
2.76489118900266e-18
5.08957690418391e-18
0
-2.7642482768961e-18
-8.4405547927581e-18
0
1.11688383841091e-17
0
-3.12576430865893e-18
8.43881214584335e-18
2.94190515768924e-18
0
3.11051285437628e-18
2.89490427581031e-18
0
-1.92069450123013e-19
5.38599232540507e-18
0
0
-5.2898141248688e-18
0
-2.53716036661035e-18
0
-9.3194992236065e-18
-2.36949321924014e-18
4.2454713623809e-18
6.77914722401775e-18
-6.6196121132657e-18
2.34634736333134e-18
6.12346840950052e-18
0
4.02153715914484e-18
-1.77536667197525e-18
1.92530579604316e-18
3.57980383639073e-18
0
1.91907483887402e-19
0
0
4.78147190445392e-18
0
-4.82249218599821e-18
1.92196088213029e-19
-6.13355604555597e-18
-4.64239344657339e-18
0
0
5.89258622241056e-18
-2.92561844815507e-18
0
0
1.92620521284722e-19
1.92663945942023e-19
3.06704359445128e-18
-1.92738183357797e-19
-3.06564251266824e-18
0
0
-2.87289005120246e-18
0
-5.93851828894955e-18
2.87284420811246e-18
0
0
2.87288912448045e-18
0
-8.42595021772019e-18
0
-5.74580118756875e-18
1.11058450059535e-17
0
-8.42592377083747e-18
1.92752123983477e-19
0
-3.06555505163589e-18
8.61868032654682e-18
0
-1.92752115122385e-19
0
2.68009953911811e-18
8.61856343705966e-18
-1.92752112655534e-19
0
-2.87285349978535e-18
0
0
3.06563212332e-18
0
0
0
8.4257814437243e-18
0
0
0
0
8.25041055304422e-18
5.50027399359653e-18
-1.92752360774783e-19
0
0
2.75013618962263e-18
-2.55738438008393e-18
1.9275236066698e-19
1.92752360664038e-19
-1.92752361027583e-19
-1.92752360397996e-19
2.75011611777433e-18
-2.55740501947903e-18
0
-2.75013925626964e-18
-1.92752361172729e-19
0
-1.92752359503845e-19
-5.50035890903405e-18
1.9276332706397e-19
-5.11724590554477e-18
-2.75355609932678e-18
-1.92832314810162e-19
0
-2.77278440106196e-18
0
-8.21460567649805e-18
0
0
2.69361628238772e-18
-2.54217219081335e-18
-1.93405975407959e-19
0
-6.2164271912089e-18
0
-6.37032650862411e-18
-3.58215265916594e-18
3.50961295354912e-18
0
3.78746061104578e-18
2.06776380309143e-18
0
0
1.94574020715034e-19
7.15755879197682e-18
2.46007396661314e-18
2.52856365306432e-18
-2.39613474837039e-18
0
0
-5.0783178187104e-18
-2.95867498091595e-18
-2.40374630436356e-18
0
1.39997655950656e-15
1.40180087369295e-15
2.61586173370321e-18
-2.60085554872517e-18
0
0
0
0
-7.6897474774204e-18
-7.55150413063309e-18
0
0
1.91649049669314e-19
-1.91617559071966e-19
0
0
1.91578811973165e-19
-1.9730086555522e-18
0
3.93722914028441e-18
-1.91639949634298e-19
0
1.73540116309027e-18
0
1.91778388588606e-19
-1.91819866695674e-19
0
-1.73910411037309e-18
0
0
1.65164623298384e-18
0
-6.03047644461049e-18
1.5825830737665e-18
0
0
0
-2.65100641915062e-18
-2.62773365315182e-18
0
5.37600216632665e-18
0
0
2.75505081624233e-18
-1.92706592457384e-19
-5.50080308962843e-18
0
0
5.50021949277581e-18
-2.55741678123136e-18
0
1.92752356353162e-19
1.92752362622257e-19
-2.75014604492184e-18
-2.75012110753481e-18
0
0
-1.92752353501202e-19
2.75009359390439e-18
-1.92752353530593e-19
0
-3.85504723391902e-19
0
0
-5.30761448353733e-18
8.25026042869965e-18
2.75017232752791e-18
0
0
-2.75013111928241e-18
-2.94288520995335e-18
2.75013551546777e-18
0
0
5.11476445834266e-18
1.92752360824313e-19
-1.92752363475178e-19
0
-5.50027876841208e-18
0
-5.50025619233686e-18
1.92752362571871e-19
-2.75015089043089e-18
-9.6379090357565e-20
4.88059767035477e-18
-2.63305121250103e-18
-1.92752616821695e-19
-1.92752616795611e-19
2.63305106614865e-18
0
-1.92752616736909e-19
0
-2.63305116435055e-18
5.26610332520517e-18
1.92752616743914e-19
0