/*--------------------------------*- C++ -*----------------------------------*\
| =========                 |                                                 |
| \\      /  F ield         | OpenFOAM: The Open Source CFD Toolbox           |
|  \\    /   O peration     | Version:  3.0.1                                 |
|   \\  /    A nd           | Web:      www.OpenFOAM.org                      |
|    \\/     M anipulation  |                                                 |
\*---------------------------------------------------------------------------*/
FoamFile
{
    version     2.0;
    format      ascii;
    class       volVectorField;
    location    "7000";
    object      cellCentres;
}
// * * * * * * * * * * * * * * * * * * * * * * * * * * * * * * * * * * * * * //

dimensions      [0 1 0 0 0 0 0];

internalField   nonuniform List<vector> 
14000
(
(0.0454803096380471 0.00329846574773673 0)
(0.136440922469811 0.0032984657481278 2.44897772968049e-18)
(0.227401533814686 0.00329846574782696 2.44897747324222e-18)
(0.318362148960149 0.00329846574789716 -4.89795506616739e-18)
(0.40932276009899 0.0032984657480701 9.63735264552416e-20)
(0.500283375424513 0.00329846574764309 -4.80158110657534e-18)
(0.591243993594325 0.0032984657478975 4.89795506673433e-18)
(0.682204598314047 0.0032984657484593 7.250560510328e-18)
(0.773165215968146 0.00329846574711258 -2.44897686429904e-18)
(0.864125845039313 0.00329846574776647 7.34693226503538e-18)
(0.955086453020311 0.00329846574839242 0)
(1.04604705034935 0.00329846574841287 0)
(1.13700768898276 0.00329846574588592 -2.54534934511701e-18)
(1.22796829714366 0.00329846575026207 -9.63735264552406e-20)
(1.31892927745816 0.00329846572330235 -2.44895656811891e-18)
(1.40988989550961 0.00329846577224579 -4.89799657644204e-18)
(1.50085013129919 0.00329846574649943 0)
(1.59181072130322 0.00329846575075034 -4.89795993044567e-18)
(1.68277133804218 0.00329846574487705 -4.80157639091585e-18)
(1.77373199629363 0.00329846574823132 -7.25055992710997e-18)
(1.86469254001498 0.00329845554407347 0)
(1.95565252339319 0.00333044811361727 0)
(2.04661125773924 0.00352998873647788 0)
(2.13756702658113 0.00410874541752779 -4.90022160682004e-18)
(2.22851507430796 0.00528310994872013 0)
(2.31944712545379 0.00726599647473961 0)
(2.41034926984462 0.0102660746273342 -4.82622877747171e-18)
(2.50120016851993 0.0144939943235704 0)
(2.59197199848296 0.0201365436079655 -4.96330418037739e-18)
(2.68262690896797 0.0273838997077777 2.40090546766711e-18)
(2.77311944668458 0.0364119924506326 0)
(2.86339762086052 0.0473546570941704 -9.67780724273077e-20)
(2.95340001330783 0.060351365043912 -9.68563542097903e-20)
(3.04305852458801 0.0755222650374162 -2.51895340294533e-18)
(3.1323054551284 0.0929393494736934 0)
(3.22107344468085 0.112639899701668 9.71303359898541e-20)
(3.30928892273391 0.13466774566584 0)
(3.39689691270948 0.158995092359928 5.72164208509714e-18)
(3.48384346243686 0.185576701632396 -2.94909239222471e-18)
(3.57008922138912 0.214344309497125 1.47591373119973e-18)
(3.65560962117093 0.245194141923703 -1.43557385960656e-18)
(3.74045216146386 0.27787172672506 0)
(3.82472296254622 0.311998322215561 8.41954530704384e-18)
(3.90857111933036 0.347162208527434 -7.2401382547319e-18)
(3.99222348474185 0.38280130879346 0)
(4.07592250114374 0.418342174631028 3.86912355598243e-18)
(4.15990291675578 0.453225867549339 0)
(4.24439258438998 0.486874437122825 0)
(4.32958463901964 0.518716915934363 0)
(4.41562559973336 0.548199800471908 -2.2577555753488e-18)
(4.50260165455198 0.574817529409588 -8.95696028685158e-18)
(4.59050798347037 0.598205725529233 2.26366311660234e-18)
(4.6792746384578 0.61809126446793 4.80545090866568e-18)
(4.76877523713849 0.634372147333497 -7.11823409824655e-18)
(4.85884647495522 0.647155801329083 2.56294191895724e-18)
(4.94932262241406 0.656676448440276 0)
(5.04006580092267 0.663191329538694 0)
(5.13096965724542 0.666894295983949 0)
(5.22194261517033 0.667972373362221 2.60593662730535e-18)
(5.31290996276528 0.666602228319004 -7.41108411586064e-18)
(5.40381246917998 0.662938079564363 -2.4884820594639e-18)
(5.49460215126509 0.657125050467084 -2.46824931910823e-18)
(5.58523970866514 0.649303752981185 -7.23126988183741e-18)
(5.67569299004195 0.639599039992539 9.56917659305393e-20)
(5.76593924305453 0.628144252082011 2.28048750227845e-18)
(5.85596112066716 0.615052509794785 0)
(5.94574222234906 0.600414018893276 -9.54347262986508e-20)
(6.03527404382189 0.584332278908777 0)
(6.12455766559137 0.56693703846219 9.5319500039962e-20)
(6.21359413172264 0.548324903753034 0)
(6.3023895042894 0.528605403206672 0)
(6.39096039757165 0.507907308387888 1.96425535252254e-18)
(6.47933265069565 0.486387747958369 -9.52109759665938e-20)
(6.56753505290007 0.464186095029544 3.73359589004742e-18)
(6.65559320581479 0.441427066922918 -3.73302993423774e-18)
(6.74354491052676 0.418264164635788 0)
(6.83142432201024 0.394834217359936 -8.82378722813379e-18)
(6.91925948730221 0.37123994367126 3.46115847437832e-18)
(7.00707948691786 0.347594663056479 -5.11217295827297e-18)
(7.0949282426406 0.32405990929509 4.70415746978561e-18)
(7.18282751546306 0.300713297575381 -3.31334130242947e-18)
(7.27080184380678 0.277655486251003 1.61977393297445e-18)
(7.3588847192667 0.255016605793389 0)
(7.44709738368978 0.232889271579374 9.54905974672414e-20)
(7.53545698542482 0.211356691951329 1.52107132288843e-18)
(7.6239857685178 0.19053402583542 0)
(7.71269769719918 0.170499515902622 9.56272667326487e-20)
(7.80159445111656 0.151307554630845 2.78408776006858e-18)
(7.89068964887253 0.133059313158219 2.73747137864666e-18)
(7.97998448790718 0.11581015536411 -2.69488992492664e-18)
(8.06948150514162 0.0996434456512953 5.21534944855999e-18)
(8.15917940693061 0.0846208042055575 0)
(8.24906517753886 0.0707697191802848 -2.49255729637922e-18)
(8.33913317716412 0.0581492934703612 2.65602437285862e-18)
(8.42937064412445 0.0468008818890798 7.50953354269639e-18)
(8.51976230512958 0.0367617446198777 0)
(8.61029276285049 0.0280521883051716 0)
(8.70094142357003 0.0206739299732035 9.61516877042522e-20)
(8.79168977322868 0.0146410840651089 -4.84037629791919e-18)
(8.88251800298533 0.00995363983815968 0)
(8.97340509991903 0.00659099403721122 -5.00299211596361e-18)
(9.06433202920332 0.00453583892797705 4.80405683765075e-18)
(9.15528039124913 0.00361824521775687 2.44918779694848e-18)
(9.24623860124309 0.00336010098996222 0)
(9.3371985885779 0.00330854615602784 -4.89799939584155e-18)
(9.428159333151 0.00329979817116679 2.44894988654271e-18)
(9.51911985676622 0.0032986508650925 0)
(9.6100804556457 0.00329848398142139 4.80151792551219e-18)
(9.70104118213848 0.0032984657783771 -2.44900351458602e-18)
(9.79200150965869 0.00329846573480162 0)
(9.88296215972545 0.00329846575880342 0)
(9.97392290174673 0.00329846572922207 -2.54533514009917e-18)
(10.0648832097479 0.00329846578514151 -2.35263575478993e-18)
(10.1558441275188 0.00329846569221932 0)
(10.2468048301161 0.00329846579820014 0)
(10.3377654607833 0.003298465696583 0)
(10.4287260948158 0.00329846579799735 2.44902023849045e-18)
(10.5196862264201 0.00329846572707142 0)
(10.6106472932866 0.00329846574124057 0)
(10.7016073508528 0.00329846578832042 -9.63735264552188e-20)
(10.7925682008736 0.00329846569315145 -2.54530439376751e-18)
(10.8835288067431 0.00329846580313792 0)
(10.974489488681 0.0032984656885355 0)
(11.065450387415 0.00329846578998145 0)
(11.15641062041 0.00329846572893395 -2.35258784217638e-18)
(11.2473713849799 0.00329846575772211 0)
(11.3383319491016 0.00329846574109803 -7.25054168540798e-18)
(11.4292927533748 0.00329846574314964 0)
(11.5202534717113 0.00329846574631233 -2.35260265615393e-18)
(11.6112136536787 0.0032984657756991 0)
(11.7021740508818 0.00329846573325123 0)
(11.7931349504067 0.00329846574521557 0)
(11.8840956184507 0.0032984657472988 -7.25055754223998e-18)
(11.9750565557983 0.00329846572887251 0)
(12.0660170378587 0.00329846577492792 2.35262704777253e-18)
(12.1569771569038 0.00329846575090225 -7.25056675730933e-18)
(12.2479378744804 0.00329846573860627 0)
(12.3388988127158 0.0032984657375119 0)
(12.4298598078715 0.00329846573515135 -9.63735264552461e-20)
(12.5208203574464 0.00329846576455157 2.35261820297453e-18)
(0.0454771802232386 0.0100541687800971 0)
(0.13643153425896 0.0100541687805267 2.43751355388729e-18)
(0.227385886815539 0.0100541687801962 -2.43751331048648e-18)
(0.318340243152905 0.0100541687802733 0)
(0.409294595504523 0.0100541687804633 1.9275006953939e-19)
(0.500248952021012 0.0100541687799942 0)
(0.59120331136697 0.0100541687802737 -7.11979003311043e-18)
(0.682157657332913 0.010054168780891 0)
(0.773112016165846 0.0100541687794113 0)
(0.864066386356364 0.0100541687801297 2.43751326154424e-18)
(0.955020735566592 0.0100541687808175 0)
(1.04597507418036 0.0100541687808399 2.43751378453562e-18)
(1.1369294538833 0.0100541687780636 0)
(1.22788380327249 0.0100541687828717 0)
(1.31883852287643 0.0100541687532512 0)
(1.40979288210457 0.010054168807025 0)
(1.5007468610625 0.0100541687787376 1.92750069667671e-19)
(1.59170119238942 0.0100541687834082 2.4375156757737e-18)
(1.68265555031198 0.0100541687769552 -4.68227177774164e-18)
(1.77360994953075 0.0100541687806403 0)
(1.86456423481673 0.010054158630021 0)
(1.95551796075412 0.0100859845178308 1.92752158243632e-19)
(2.04647043794265 0.0102844855323172 -4.8755190283165e-18)
(2.13741995856412 0.0108602269154239 4.87719549128021e-18)
(2.22836179174812 0.0120284730781479 4.49535109378604e-18)
(2.31928770529886 0.014001028911559 2.2510531093353e-18)
(2.41018386145375 0.0169854769091735 -2.44933534957081e-18)
(2.50102903211423 0.0211913695400015 0)
(2.59179554064177 0.0268045217162528 2.46869237502839e-18)
(2.68244573136747 0.0340141198942627 -2.48385156160861e-18)
(2.7729343901697 0.0429951773543484 7.51049461986575e-18)
(2.8632097965935 0.0538808321364293 -4.8634642740315e-18)
(2.95321085172722 0.0668098290910552 0)
(3.04286981175664 0.0819016910896191 0)
(3.13211933080674 0.0992280355564543 0)
(3.22089239948815 0.118825949776302 2.88840472612488e-18)
(3.30911582875517 0.140739035597726 0)
(3.39673493357208 0.164939642844718 -5.27268947956536e-18)
(3.48369603719944 0.191382769588988 0)
(3.56995999998807 0.220000507391766 -1.01997744270791e-18)
(3.65550237635955 0.250689623524244 8.96946394097136e-18)
(3.74037043415543 0.283196969942009 7.61064834354372e-18)
(3.82466973421374 0.317145778438436 -1.94336559053224e-19)
(3.90854860589044 0.352126471991849 0)
(3.99223272402767 0.387579900586311 0)
(4.07596327019778 0.422935602712056 -3.40181975513843e-18)
(4.15997377244023 0.457637551516902 -2.25806458726345e-18)
(4.24449090302066 0.491110807615741 1.74230813146313e-18)
(4.32970679209479 0.522787379713286 -1.94522996149008e-19)
(4.41576720194805 0.552116649290574 3.92562472431124e-18)
(4.50275786921172 0.57859569105264 6.92082706288505e-18)
(4.59067399409775 0.601862027745589 -9.22005985286572e-18)
(4.6794459927149 0.621643958241281 0)
(4.76894812298529 0.637840015159712 2.23278670684177e-18)
(4.85901792268728 0.650557065262993 2.26000267017018e-18)
(4.94949051364832 0.660028109578754 1.93275603088412e-19)
(5.04022873875928 0.666509048186255 -2.68151502926623e-18)
(5.13112679747116 0.670192722216169 0)
(5.22209358789036 0.671265182716894 0)
(5.31305478710895 0.669902175847001 -2.68109671208757e-18)
(5.40395147234803 0.666257116840622 1.92433860534525e-19)
(5.49473590936443 0.660474373011199 1.92299903359341e-19)
(5.58536900221526 0.652693823774633 2.43115871693074e-18)
(5.67581876800576 0.643039671579304 -2.40164064436099e-18)
(5.76606257036475 0.631644562334156 1.9839300514092e-18)
(5.8560831573503 0.61862102726536 -1.91885932285686e-19)
(5.94586421206441 0.604058802173707 4.38941118146613e-18)
(6.03539727527232 0.588060847359844 2.05643538303797e-18)
(6.12468341921106 0.570756235410743 -2.20384642183478e-18)
(6.21372368969707 0.552241069262036 -4.31707207276103e-18)
(6.30252411013497 0.532624306555605 0)
(6.39110121449048 0.512034048013376 -3.9396408672556e-18)
(6.47948070016757 0.490626603440733 -2.0186981765645e-18)
(6.5676912166212 0.468540620009198 -1.58943710093516e-18)
(6.65575822519282 0.445900165032501 7.13286488629253e-18)
(6.74371933545473 0.422857939891528 1.88236815602389e-18)
(6.83160852213018 0.399550060801144 6.78082942880181e-18)
(6.91945369234107 0.376078711373991 -1.91640817650071e-19)
(7.00728376909825 0.352556620491641 -6.45219241553495e-18)
(7.09514244810955 0.329144480452208 -6.29694782487814e-18)
(7.1830513818253 0.305919502245751 0)
(7.27103497478158 0.282981819609875 1.91779122140823e-19)
(7.35912654815433 0.260460885194436 -1.42102310415806e-18)
(7.44734723243353 0.23844883185393 4.55243088315001e-18)
(7.5357140881803 0.217028434485344 -5.82409754008139e-18)
(7.62424923996201 0.196314251954728 -5.71278358810664e-18)
(7.71296658548621 0.176384119478499 -2.80497711517579e-18)
(7.80186779121914 0.157292146063944 0)
(7.890966405906 0.139138975762314 -2.90471283817857e-18)
(7.98026362271923 0.121979684090183 5.34402135048727e-18)
(8.06976196148781 0.105897201036766 0)
(8.1594601403986 0.0909528258614128 5.20180544393785e-18)
(8.24934520852465 0.0771739034454285 -1.00898668197174e-17)
(8.33941155615097 0.0646192287678956 0)
(8.42964648830133 0.0533299412071776 7.36678761166912e-18)
(8.52003481105657 0.0433431068014097 0)
(8.61056120828841 0.0346789263978332 2.48172201296939e-18)
(8.70120519345239 0.0273391080899384 -2.46741201406008e-18)
(8.79194834802 0.0213376927517476 -1.92574203980226e-19)
(8.88277096785319 0.0166746697262325 4.50973417127893e-18)
(8.9736521489811 0.0133295430631422 4.88338457077946e-18)
(9.06457295579913 0.0112850952240095 -1.24943812237832e-16)
(9.15551509344783 0.0103722821825141 -1.16173905122755e-16)
(9.24646704691177 0.0101154828978633 0)
(9.33742077654231 0.010064196670881 0)
(9.42837526122713 0.0100554942580761 -7.3124614052458e-18)
(9.51932952646025 0.0100543529369584 2.43754431431572e-18)
(9.61028386660831 0.0100541869149215 0)
(9.70123833371199 0.0100541688137614 4.87507605574942e-18)
(9.79219240392248 0.0100541687658853 0)
(9.88314679499928 0.0100541687922561 -1.92750068662756e-19)
(9.97410127755139 0.0100541687597543 6.92699462943084e-18)
(10.0650553283448 0.0100541688211947 4.87508700270782e-18)
(10.1560099857307 0.0100541687190994 -1.92750074100959e-19)
(10.2469644290645 0.0100541688355418 0)
(10.3379188008425 0.010054168723895 2.24472177679264e-18)
(10.4288731759688 0.0100541688353173 -1.92750065461738e-19)
(10.5198270512841 0.0100541687573926 4.6822429647095e-18)
(10.6107818569891 0.0100541687729595 0)
(10.7017356586522 0.0100541688246864 0)
(10.792690248641 0.0100541687201247 -2.43746907402026e-18)
(10.8836445957509 0.010054168840966 0)
(10.9745990185326 0.0100541687150534 0)
(11.0655536569812 0.0100541688265101 2.63029748268877e-18)
(11.1565076331589 0.0100541687594388 -2.24474795353884e-18)
(11.2474621381423 0.0100541687910691 7.31256395047238e-18)
(11.3384164437217 0.0100541687728025 4.87501573230234e-18)
(11.4293709882015 0.0100541687750563 0)
(11.5203254471923 0.0100541687785336 0)
(11.6112793726085 0.0100541688108182 0)
(11.7022335121388 0.010054168764182 2.43750151783519e-18)
(11.7931881513741 0.010054168777327 1.92750069772535e-19)
(11.8841425603344 0.0100541687796158 0)
(11.9750972371953 0.0100541687593719 0)
(12.0660514611409 0.0100541688099718 -7.11985564366904e-18)
(12.1570053239625 0.0100541687835744 -7.31254739568835e-18)
(12.2479597821973 0.0100541687700649 0)
(12.3389144599415 0.0100541687688633 -2.43750496466246e-18)
(12.4298691943092 0.0100541687662707 4.87500611081883e-18)
(12.5208234854176 0.0100541687985707 1.92750068193348e-19)
(0.045473900242561 0.0171349096746416 2.14187286378336e-18)
(0.136421694352117 0.0171349096751136 -1.92750214903138e-19)
(0.227369486990649 0.0171349096747505 0)
(0.318317283389216 0.0171349096748352 2.33462320190071e-18)
(0.409265075823912 0.017134909675044 0)
(0.500212872400618 0.0171349096745285 0)
(0.591160671791262 0.0171349096748356 -4.47649618938922e-18)
(0.682108457875335 0.0171349096755138 -4.66924726702822e-18)
(0.773056256755771 0.0171349096738881 0)
(0.864004066931446 0.0171349096746775 0)
(0.954951856241997 0.0171349096754331 2.33462358216237e-18)
(1.04589963501425 0.0171349096754578 1.92750214878731e-19)
(1.13684745465014 0.0171349096724073 2.14187144256023e-18)
(1.22779524413866 0.01713490967769 7.00387505303664e-18)
(1.31874340180981 0.017134909645146 0)
(1.4096912010832 0.0171349097042273 0)
(1.50063862217388 0.0171349096731479 4.66924425740294e-18)
(1.59158639369928 0.0171349096782794 0)
(1.68253419167435 0.0171349096711895 0)
(1.77348203071893 0.0171349096752385 0)
(1.86442975645676 0.0171348995807515 -2.14187600245934e-18)
(1.95537692388842 0.0171665507670977 2.33465756706754e-18)
(2.04632284286815 0.0173639621535369 0)
(2.13726581464792 0.0179365431622626 1.92777077853237e-19)
(2.22820113428817 0.0190983765817613 2.14465448476375e-18)
(2.31912061494507 0.021060104680597 0)
(2.41001049475132 0.0240281705093431 0)
(2.50084966180428 0.028210976288561 0)
(2.59161059286532 0.033793316978589 -2.36437537935176e-18)
(2.68225583674904 0.0409633405974921 2.18581173087886e-18)
(2.7727404300097 0.0498950997808678 1.93083497060799e-19)
(2.86301293551542 0.0607210018064817 0)
(2.95301258899221 0.0735790300138566 9.41580589989509e-18)
(3.04267201936032 0.0885880512955597 -4.97274186232246e-18)
(3.13192425145997 0.105819290058209 4.86503359800685e-18)
(3.22070264364158 0.125309630184016 0)
(3.30893440667882 0.147102434449396 -7.72590668262934e-18)
(3.39656516110566 0.171170204469721 -1.93716815164861e-19)
(3.48354151886588 0.19746818590457 -2.5950561991565e-18)
(3.56982456133436 0.225928842959996 0)
(3.6553899716587 0.256449510248552 1.58916217717349e-18)
(3.7402847746859 0.288778427569903 -1.64603362856999e-18)
(3.82461394489692 0.32254089514922 2.83365141856323e-18)
(3.90852500925752 0.357329581918209 4.73857471955478e-18)
(3.99224240784475 0.392588405545744 -3.48824442137778e-18)
(4.07600600077969 0.427750035115058 -5.33941801128353e-18)
(4.16004803721501 0.462261495508097 7.51865523175342e-18)
(4.24459395207073 0.495551003253786 -2.04186883735448e-18)
(4.32983482234019 0.527053686360801 3.81743361198616e-18)
(4.41591561709333 0.556221950098793 3.92983651261119e-18)
(4.50292159985344 0.582555632017015 -6.04577136484645e-18)
(4.59084799202176 0.605694246232733 -6.56820098537849e-18)
(4.67962559136636 0.625367583329219 0)
(4.76912932691418 0.641474733019053 1.93684156095898e-19)
(4.85919761930719 0.654121974667434 -4.50597993730897e-18)
(4.94966648265447 0.663541029607435 -2.36979560220998e-18)
(5.04039951604297 0.669986392616905 1.93086492399475e-19)
(5.13129149820191 0.673649845993443 -1.929064151909e-19)
(5.22225182437699 0.674716419359639 0)
(5.31320657940153 0.673360894098482 1.92580212814485e-19)
(5.40409716339024 0.669735843309202 1.92433990282114e-19)
(5.49487610298163 0.663984841872552 1.92300017463116e-19)
(5.58550451648031 0.656247001420505 0)
(5.6759505975392 0.64664584266836 -1.9206843736274e-19)
(5.76619183133647 0.635313283428951 -2.26809132690792e-18)
(5.85621106559938 0.622361237255458 -2.04071356993491e-18)
(5.94599207108643 0.607878947374872 0)
(6.03552643577365 0.591968808912748 -2.34554986295813e-18)
(6.12481522323155 0.57475918589518 0)
(6.21385948111216 0.556345653781455 5.82136700629428e-18)
(6.30266519229049 0.536836571966145 0)
(6.39124880655389 0.516359338053117 1.7879340014706e-18)
(6.4796358727652 0.495069403591869 0)
(6.56785489387038 0.473104654888944 -1.89075244893484e-18)
(6.65593118417264 0.450588477974358 -1.6555679872031e-18)
(6.74390215251529 0.427672736141601 -1.80465834835723e-18)
(6.83180158469805 0.404492798323966 1.57158901672943e-18)
(6.91965724119614 0.381150287433683 1.53179968608867e-18)
(7.00749787993784 0.357757313328853 1.49319611778213e-18)
(7.09536695967819 0.334473686340367 -1.91705273735254e-19)
(7.18328601910308 0.31137619381446 -3.0339618890171e-18)
(7.27127932242124 0.28856441962896 0)
(7.35938001219039 0.266167106001474 0)
(7.44760910218566 0.244275880048129 1.91864004610493e-19)
(7.53598356095689 0.222973062366957 -2.78712581740912e-18)
(7.62452538784417 0.202372582890938 0)
(7.71324841083176 0.182551849781862 0)
(7.80215428257021 0.163564674935741 0)
(7.89125647858631 0.145511149957165 2.5969491602031e-18)
(7.98055618757962 0.128446048128446 -7.29040209489428e-18)
(8.07005591146455 0.112451844121371 -2.33030089220485e-18)
(8.15975438082951 0.0975895008324024 -2.29818596074908e-18)
(8.24963871267395 0.0838862129756612 7.38443329491611e-18)
(8.33970332881777 0.0714004528003048 -4.87129245645635e-18)
(8.42993560419993 0.0601731338858352 0)
(8.52032042809113 0.0502411187837224 6.7953823304611e-18)
(8.61084256947071 0.0416244974565022 4.75357836024923e-18)
(8.70148165412329 0.0343249686339021 1.92528455181201e-19)
(8.79221936364766 0.028356496082077 -1.92574342005834e-19)
(8.88303610364647 0.0237190692355704 0)
(8.97391108434078 0.0203923046101794 0)
(9.06482547412179 0.0183590792040342 1.14135428133554e-16)
(9.15576108789843 0.0174512768476887 1.24084736230324e-16)
(9.24670648381131 0.0171958872171656 4.86204162764373e-18)
(9.33765365466 0.0171448825211643 0)
(9.42860157827387 0.0171362278728272 0)
(9.51954928401469 0.0171350928249861 0)
(9.61049706430431 0.0171349277056633 2.33459455168998e-18)
(9.70144497086025 0.0171349097116284 1.19131908996046e-16)
(9.79239248270239 0.0171349096590272 1.08069300185905e-16)
(9.88334031364977 0.0171349096880006 0)
(9.97428823557015 0.0171349096522907 -4.47646750878034e-18)
(10.0652357281021 0.0171349097197949 -2.14190158694649e-18)
(10.1561838238965 0.017134909607625 0)
(10.2471317068143 0.0171349097355574 0)
(10.3380795185684 0.0171349096128932 0)
(10.429027333653 0.0171349097353109 0)
(10.5199746516697 0.017134909649697 0)
(10.6109228949693 0.017134909666799 -2.33461809068324e-18)
(10.7018701397384 0.0171349097236315 0)
(10.7928181685057 0.0171349096087509 0)
(10.8837659557277 0.0171349097415174 -4.28383081083366e-18)
(10.9747138182056 0.0171349096031779 -1.07455295651982e-16)
(11.0656618951671 0.0171349097256369 -1.10414462849139e-16)
(11.1566093134926 0.0171349096519436 0)
(11.2475572577213 0.0171349096866956 -2.33463074589372e-18)
(11.3385050036405 0.017134909666628 0)
(11.4294529871488 0.0171349096691039 -4.47648889750239e-18)
(11.5204008856373 0.0171349096729226 0)
(11.6113482534801 0.0171349097083954 -2.33464454787396e-18)
(11.7022958342617 0.0171349096571562 0)
(11.7932439120053 0.0171349096715975 1.92750215152517e-19)
(11.884191760738 0.0171349096741128 -4.6692454847137e-18)
(11.9751398759006 0.0171349096518708 -1.92750216551609e-19)
(12.0660875406342 0.0171349097074641 2.14189374332995e-18)
(12.157034846226 0.017134909678463 0)
(12.2479827439626 0.0171349096636192 8.95296384123696e-18)
(12.3389308600037 0.0171349096622987 0)
(12.4298790323576 0.0171349096594499 0)
(12.5208267638853 0.0171349096949394 0)
(0.0454704624518266 0.0245563270034515 -2.04370571287252e-18)
(0.136411381016797 0.0245563270039702 4.28016236282745e-18)
(0.227352298119253 0.0245563270035712 0)
(0.318293218959992 0.0245563270036643 0)
(0.409234135859791 0.0245563270038936 0)
(0.500175056877639 0.0245563270033273 2.23645601199251e-18)
(0.591115980693146 0.0245563270036647 2.04370582999176e-18)
(0.68205689127906 0.0245563270044098 0)
(0.772997814587312 0.0245563270026237 0)
(0.863938749125457 0.0245563270034909 0)
(0.954879662919182 0.0245563270043211 4.2801627483674e-18)
(1.04582056623557 0.0245563270043483 0)
(1.13676151017921 0.0245563270009968 -4.28015909655039e-18)
(1.22770242414988 0.0245563270068007 -2.23645791970238e-18)
(1.31864370417327 0.0245563269710445 0)
(1.40958462787212 0.0245563270359576 0)
(1.50052517557618 0.0245563270018104 -4.47291035781075e-18)
(1.59146607168764 0.0245563270074485 -1.92750367052869e-19)
(1.68240699409578 0.0245563269996587 0)
(1.77334795733581 0.0245563270041074 0)
(1.86428880792526 0.0245563169684732 0)
(1.9552291013011 0.0245877850477575 -4.47297839035138e-18)
(2.04616814653627 0.0247840543797882 0)
(2.13710425438926 0.025353322957514 0)
(2.22803274709895 0.0265084350956513 0)
(2.31894548535552 0.0284588145037013 0)
(2.40982878683849 0.0314097099681285 1.92867125661766e-19)
(2.50066166143161 0.0355683181203892 -2.44751203209171e-18)
(2.59141674667667 0.0411183648968352 -2.26484704108038e-18)
(2.68205680571006 0.0482469099166627 -1.93019700275663e-19)
(2.77253713782269 0.0571269989517267 4.78606711279001e-18)
(2.86280660283728 0.0678902733593662 2.12588564007041e-18)
(2.95280478721794 0.0806739183302514 2.5402474162395e-18)
(3.0424647105528 0.0955961132166181 9.13792028756465e-18)
(3.1317197862337 0.112727670496042 2.61537777017712e-18)
(3.22050375804407 0.13210526086043 0)
(3.30874425581361 0.153771996509546 -2.33376223067642e-18)
(3.39638722034825 0.177700538145483 -4.99236770512324e-18)
(3.48337956616453 0.203846390927013 -1.93835045801325e-19)
(3.56968260629587 0.232142409624201 0)
(3.65527215880939 0.262486523483198 2.66135919936374e-18)
(3.74019499386629 0.294628426913371 2.76947587756163e-18)
(3.82455547137854 0.328195588093194 -7.60850937804202e-18)
(3.90850027731568 0.362783029976645 1.31197371046028e-18)
(3.99225255758092 0.397837885528267 1.37607764289528e-18)
(4.07605078726479 0.432796105060384 -1.34733048482288e-17)
(4.16012587510231 0.467107912025805 -8.88836124593949e-18)
(4.2447019591357 0.500204830711622 5.09083468757758e-18)
(4.32996901252521 0.531525258500737 7.67091917916955e-18)
(4.41607117296105 0.560524769923829 9.75973690057776e-18)
(4.50309320809508 0.586706098287646 1.72804515644271e-18)
(4.59103036153682 0.609710844884766 -1.96512577822938e-18)
(4.67981383107619 0.629270363781107 -4.00307715123749e-18)
(4.76931924913438 0.645284328593794 -6.29066035985994e-18)
(4.85938596169483 0.657858403039139 2.2507398248248e-18)
(4.94985091807927 0.667222967193803 -2.46321808151787e-18)
(5.0405785099538 0.673631042921507 0)
(5.1314641231969 0.677273302744266 -6.67435004201399e-18)
(5.22241767411239 0.678333705714916 2.09636025163931e-18)
(5.31336567489249 0.676986022021216 0)
(5.40424986408081 0.673381942108407 1.92434126293538e-19)
(5.49502304174931 0.667664210296862 1.92300137074582e-19)
(5.58564655075808 0.659971133492925 0)
(5.67608876980197 0.650425517877393 -2.20367734760908e-18)
(5.76632731145658 0.639158518134519 2.17288799031548e-18)
(5.85634512791368 0.626281400426332 5.84133103152203e-18)
(5.94612608180576 0.611882891705809 2.10243993622184e-18)
(6.03566181059107 0.596064794730657 -3.74402764503207e-18)
(6.12495336875658 0.578954730874094 1.83165549244293e-18)
(6.21400180587833 0.560647722741786 1.91649217845442e-19)
(6.30281306235163 0.541251502695628 1.7481795574066e-18)
(6.39140349973543 0.520892731393477 0)
(6.47979851120462 0.499725960833545 3.32613947317802e-18)
(6.5680264461472 0.477888279852176 1.91579403033337e-19)
(6.6561124647536 0.455502360414764 1.91586100485108e-19)
(6.74409376548048 0.432719187405562 -6.53886635446824e-18)
(6.83200393611432 0.409673346521008 -1.91619038267883e-19)
(6.91987058342798 0.38646587299766 6.03720021558631e-18)
(7.0077222923245 0.363208227884249 -7.31449010371968e-18)
(7.09560227320562 0.340059297110751 1.38924163361381e-18)
(7.1835319455192 0.317095423998593 2.51986844754253e-18)
(7.27153542639498 0.294415616107224 5.48679272524467e-18)
(7.35964567117857 0.2721478710425 0)
(7.4478835713148 0.250383285849082 5.25123887906799e-18)
(7.53626599891522 0.229203704969266 -2.47602960462221e-18)
(7.62481482206753 0.208722399140596 0)
(7.71354379567827 0.189016328927546 -2.37857119052884e-18)
(7.8024545579175 0.170138994817691 -5.05401629103642e-18)
(7.89156050757081 0.152189909389052 -2.48659279271859e-18)
(7.98086282864985 0.135223529151056 -2.64181886119885e-18)
(8.07036400429238 0.11932185154817 1.92195502770226e-19)
(8.16006277808524 0.104545486935246 -2.38502675480719e-18)
(8.24994633822239 0.0909214726321829 0)
(8.34000913957588 0.0785079426314091 4.85792600977771e-18)
(8.43023863036374 0.067345573851124 6.54889897240489e-18)
(8.52061978704908 0.0574710155652821 1.92435961054209e-19)
(8.61113746781361 0.0489042415173722 0)
(8.70177141617564 0.0416469406237915 2.26366077398193e-18)
(8.79250341867858 0.0357129958315979 0)
(8.88331399594583 0.0311023966732345 -1.92618805736698e-19)
(8.97418247788441 0.0277948775398594 1.92662192374776e-19)
(9.06509014188494 0.0257734145159419 2.04481476728991e-18)
(9.15601891790592 0.0248708639283272 1.92736426631156e-19)
(9.24695744076366 0.0246169517765176 4.47295861445092e-18)
(9.33789773726716 0.0245662421573921 1.92749861556525e-19)
(9.42883878413658 0.0245576375713977 0)
(9.51977961478756 0.0245565090990617 -1.92750354224964e-19)
(9.61072051960355 0.0245563449254719 0)
(9.70166154996343 0.0245563270440893 -1.09357863635505e-16)
(9.79260218789375 0.0245563269862959 -1.06999790758916e-16)
(9.88354314308353 0.0245563270181291 2.23646414141779e-18)
(9.97448418871983 0.024556326978895 0)
(10.065424807452 0.0245563270530616 0)
(10.1563660259562 0.0245563269298184 -2.42916601217974e-18)
(10.247307032816 0.0245563270703819 -6.51672815420962e-18)
(10.3382479689232 0.0245563269356067 -4.28008726629083e-18)
(10.4291889083422 0.0245563270701112 2.23649269043694e-18)
(10.5201293535683 0.0245563269760433 2.23644102745722e-18)
(10.6110707187248 0.0245563269948351 -2.23645134800468e-18)
(10.7020110911273 0.0245563270572785 -1.92750363680957e-19)
(10.7929522429923 0.0245563269310556 -4.47283263874803e-18)
(10.8838931547098 0.0245563270769291 0)
(10.9748341412474 0.0245563269249334 1.0896895959575e-16)
(11.0657753410282 0.0245563270594796 1.07202638145575e-16)
(11.1567158859829 0.0245563269785144 0)
(11.2476569537987 0.0245563270166951 0)
(11.338597824452 0.0245563269946469 0)
(11.42953893132 0.0245563269973666 0)
(11.5204799536601 0.0245563270015628 1.92750367451145e-19)
(11.6114204484243 0.0245563270405368 0)
(11.7023611548955 0.0245563269842404 0)
(11.7933023554536 0.0245563270001077 2.04370387604604e-18)
(11.8842433283257 0.0245563270028701 0)
(11.9751845660864 0.0245563269784326 -2.23644233951643e-18)
(12.066125356024 0.0245563270395145 -4.28020140829049e-18)