/*--------------------------------*- C++ -*----------------------------------*\
| =========                 |                                                 |
| \\      /  F ield         | OpenFOAM: The Open Source CFD Toolbox           |
|  \\    /   O peration     | Version:  3.0.1                                 |
|   \\  /    A nd           | Web:      www.OpenFOAM.org                      |
|    \\/     M anipulation  |                                                 |
\*---------------------------------------------------------------------------*/
FoamFile
{
    version     2.0;
    format      ascii;
    class       volTensorField;
    location    "7000";
    object      grad(Usqr);
}
// * * * * * * * * * * * * * * * * * * * * * * * * * * * * * * * * * * * * * //

dimensions      [0 0 -1 0 0 0 0];

internalField   nonuniform List<tensor> 
14000
(
(-0.000296964244959367 4.89433852126705e-10 0 5.74012443810847 7.86843439562682e-09 0 0 0 0)
(-0.000409167741028962 2.5904611790219e-10 0 5.73304130331237 1.33512890908012e-07 0 0 0 0)
(-0.000790657323245712 -3.05824925689411e-10 0 5.70566856934767 2.21218657673214e-07 5.85462851867586e-42 0 0 0)
(-0.000819958347868819 -1.04929392218019e-10 0 5.67044350640793 2.52620121515418e-07 5.86783125292302e-42 0 0 0)
(-0.000887055312177193 6.34857817402785e-11 0 5.63107090855065 3.20821912082123e-07 0 0 0 0)
(-0.00100812524572196 3.4158691349862e-11 0 5.58562360774895 4.1196572930698e-07 0 0 0 0)
(-0.00112517919409524 1.75906240467009e-11 2.22321015795939e-42 5.53378705493166 5.18543140624212e-07 1.44178121419008e-44 0 0 0)
(-0.00124995600032747 2.41621096089512e-11 2.22845947303285e-42 5.47535342922112 6.52735428269475e-07 5.56805221678022e-41 8.04421144037399e-22 4.78601221214751e-30 4.46546271038014e-62)
(-0.00139180320800555 2.3808649241706e-11 -2.22320956211575e-42 5.40962849987175 8.24884038426908e-07 5.58326160703656e-41 -8.04420751517133e-22 -4.78600987679519e-30 -4.46546053144113e-62)
(-0.00155116353720245 2.0427160570498e-11 -2.22845887718922e-42 5.33576814120092 1.04632019349114e-06 2.51307789070897e-41 0 0 0)
(-0.00173041957325127 1.70273623796386e-11 0 5.25279438554536 1.3336036228014e-06 2.52988428754281e-41 0 0 0)
(-0.00193287795357395 1.23576727264919e-11 0 5.15953968234524 1.70925198705954e-06 0 0 0 0)
(-0.00216170372422123 6.28983385063681e-12 0 5.05463401489881 2.2040356975968e-06 1.09095895510408e-40 0 0 0)
(-0.0024204391918688 -6.2784063728978e-13 0 4.93648404702948 2.86100479212098e-06 4.46396168565283e-40 0 0 0)
(-0.00271305683046738 -7.86091435989308e-12 0 4.80322783414405 3.74155792584782e-06 2.94408106375993e-44 0 0 0)
(-0.00304429506808828 -1.37249658817123e-11 0 4.65269611510852 4.93483009204784e-06 4.05433043731829e-44 0 0 0)
(-0.00341908861393345 -1.65239847007749e-11 0 4.48231404010323 6.57424489698997e-06 5.12691463528062e-40 0 0 0)
(-0.00384555526434131 -8.12183000565795e-12 0 4.28906432239684 8.86775807020901e-06 1.32936766528183e-40 0 0 0)
(-0.00432630037935861 2.52389442124958e-11 0 4.06911575130793 1.21455724920327e-05 0 0 0 0)
(-0.00490277522476317 2.05925125863113e-10 1.50867446595262e-41 3.81831554149859 1.70747353188279e-05 2.79541652504938e-43 0 0 0)
(-0.00556479938122367 1.46888609047935e-08 3.57936715853626e-39 3.52826051103608 2.47910128691268e-05 4.60498612743524e-40 -8.26324963272352e-22 -3.09448798616873e-28 -7.21118097789032e-59)
(-0.00778980847383411 1.98385597126673e-07 1.78699462250864e-38 3.19454112919402 4.46767813141534e-05 5.56166324274989e-38 -3.6360742208838e-20 -5.19698051556949e-25 -5.71007376112522e-58)
(-0.0149609832847218 8.23134261783553e-07 -5.33228410451106e-39 2.87519653085897 0.00011614321435748 4.75505658916925e-37 1.33878032669766e-19 5.40662211063904e-24 2.21431713756894e-56)
(-0.0265514091118834 9.98154807879493e-07 1.33737610628776e-36 2.62054751446461 0.000323434446976224 3.07136565939302e-38 0 0 0)
(-0.0424691887702936 -4.42704591158332e-06 8.87520785535632e-37 2.43958966127834 0.000806370912764444 3.70722516613894e-35 -1.07536824810194e-21 -5.82393050306191e-25 -1.15158792323673e-55)
(-0.0628962902215323 -2.93170509938679e-05 4.39335075819072e-36 2.33048788787706 0.00176821467717966 2.14914356648058e-35 1.07698402036294e-21 5.83268112906694e-25 1.15331821779002e-55)
(-0.088691462903075 -0.000103893362939178 -1.8419874635022e-36 2.28518963369208 0.00351005014415998 1.76012884063253e-34 0 0 0)
(-0.12279706639586 -0.000293586062259017 -1.62384931776312e-35 2.31562810978655 0.00653676102880025 1.83285831623886e-34 1.726431266578e-18 4.87077013450047e-21 1.36595280202929e-52)
(-0.166266042135265 -0.000710542005327812 -6.58772659693504e-36 2.40625217082693 0.011512095735487 -1.71396935653291e-37 -1.19750309829452e-22 -4.02423250600684e-24 2.6713653032838e-55)
(-0.225320205672499 -0.00159207406544895 -1.33573515904939e-40 2.5708461128308 0.019664139354416 1.48479839697557e-39 1.30001341771912e-21 9.13287391224368e-24 4.24643509771654e-60)
(-0.303618150786834 -0.00332382636865717 -1.86021911641646e-40 2.8139249505886 0.0326264663841129 1.42125467489396e-39 0 0 0)
(-0.406115554518661 -0.00653388916415085 -8.93153153710123e-35 3.12638486448995 0.0525343707296934 1.44809290025661e-33 -9.39941175819489e-18 -1.57928165939428e-19 -4.34838526710717e-51)
(-0.542057259722931 -0.0123193695419138 -2.33973028772978e-34 3.52654349109027 0.0828779451651826 1.48690493790006e-33 -1.06342602302662e-17 -2.49884513726489e-19 -4.48070533503301e-51)
(-0.721605258537782 -0.0223942347696427 -2.50789090233272e-34 4.03179237716094 0.128407045842144 1.28441818865043e-33 -1.22114016251027e-17 -3.88863894247472e-19 -3.8920426651426e-51)
(-0.955820601911661 -0.0392194544891209 -4.34219673862569e-34 4.65536068732582 0.194934718023924 2.43557283276469e-33 0 0 0)
(-1.25040796416485 -0.0659679139225688 -1.05118564281538e-34 5.38196680190465 0.288639635156993 1.12020179370611e-33 -1.64765498325352e-17 -8.83554845014164e-19 -3.41597347283718e-51)
(-1.64169355865622 -0.109098722892751 -4.51203176583716e-33 6.2981983158721 0.423954162355727 1.7548681266702e-32 3.88215060705343e-17 2.61296782547795e-18 1.08158047868589e-49)
(-2.12259000479524 -0.172984397439323 -9.86074710341292e-34 7.36537197289475 0.606567905726333 2.97083608442213e-33 -3.22683975385672e-21 -2.81290292803995e-22 -7.52085863395227e-54)
(-2.75096364604684 -0.270463570255115 -1.53196995299535e-33 8.6869960191629 0.861171857195442 4.16237655955521e-33 5.43648384969717e-17 5.38897138668772e-18 2.60909731075921e-50)
(-3.52754318377729 -0.409041398248243 -1.40098616995393e-34 10.2671487412412 1.19848240304935 -3.29752488440707e-36 6.47769949625516e-17 7.56099575494238e-18 6.5476008232233e-55)
(-4.58305808391552 -0.617455753868692 -1.16051151034521e-39 12.3634602232603 1.67336591358509 -4.3923267916952e-42 -6.08673198134231e-21 -8.02271955971643e-22 -5.90247805034627e-62)
(-5.86795808481701 -0.887223982517767 -4.24775491875744e-35 14.9556645868306 2.26821304728569 1.07550639156958e-34 6.33492787594984e-21 8.34985833704601e-22 6.1431607064247e-62)
(-7.44622673418905 -1.23141218014841 -1.47398960248584e-42 18.1387699111393 3.00448760094559 8.04744382614502e-43 2.34005205875254e-21 3.5593909376581e-22 6.05193784417921e-64)
(-9.3095133066418 -1.62400589450661 -2.59025414587151e-34 22.0870912325157 3.85371930918743 6.11465333949829e-34 -2.44151057734766e-21 -3.71371679134366e-22 -6.3143339930185e-64)
(-11.3427550995586 -2.00819933308159 4.99337357043933e-39 26.7215168020599 4.72652081702712 -1.34683841274718e-41 0 0 0)
(-13.4098228436911 -2.32049985349483 -1.86720435422223e-37 31.9695538276707 5.52123787901505 4.431540931834e-37 -2.06826148211867e-16 -3.57186808966749e-17 -2.86682799370336e-54)
(-15.4013478524372 -2.50852923698809 -3.40630240147838e-33 37.8628350526953 6.14837806075363 1.025488935395e-32 -9.35459358264289e-21 -1.25836624412579e-21 -1.22439218433594e-53)
(-17.0239572427302 -2.50214492313365 -1.3310549640021e-32 44.0940277581062 6.4543644574695 3.43311300650132e-32 9.6948088173115e-21 1.30413149980068e-21 1.26892184461891e-53)
(-18.0322650416125 -2.29225538231959 -7.98453916897504e-34 50.2601439186184 6.35525837370711 2.14088980776842e-35 2.27824468942599e-20 2.29258556582318e-21 1.55721188086086e-59)
(-18.0684719430958 -1.88910652086117 -3.49543291425392e-39 55.6028820836009 5.77419493386946 1.07844363104664e-38 -4.70920320944747e-20 -4.2810327071568e-21 -3.28777964331385e-59)
(-16.9195841574045 -1.38113004961151 -1.49998599616531e-32 59.0267129784361 4.77653913795233 5.46196696615527e-32 2.42440124722508e-20 1.97017672537087e-21 1.72784425050579e-59)
(-14.8131902746896 -0.893936600074315 -7.47107565081131e-33 60.2146792114034 3.59252711352839 3.33502769157507e-32 1.84770806712422e-16 1.10223255367036e-17 1.0244671811531e-49)
(-11.8853899942091 -0.494279213610573 -3.70754335302276e-33 58.4060193278708 2.3908673454075 1.90956911162631e-32 1.77587170991095e-16 7.26842536234956e-18 5.80965235720878e-50)
(-8.7806751161537 -0.234731248555727 -8.29188205896595e-33 54.0375112860588 1.41225780868957 4.69548525484145e-32 1.69231765324281e-20 3.23609105885819e-22 3.1357733101884e-53)
(-5.98838247957726 -0.0943625972215995 -4.25495206701123e-33 48.3503849780667 0.735621463397641 2.82724685131939e-32 -1.4517316528295e-16 -2.20829227230842e-18 -8.47957894083627e-50)
(-3.80750585303468 -0.0317641841340843 5.57573142003492e-35 42.7521348500009 0.336026516474879 -2.7662406060429e-36 0 0 0)
(-2.14678073201064 -0.00781843095428666 -2.01540652290446e-34 37.7525776873988 0.120964342093937 3.61949447372135e-33 2.81784401538166e-17 9.02386788429728e-20 2.70300818979624e-51)
(-0.890935940887184 -0.00100026175583046 -5.56543489346124e-35 33.0921150497727 0.0237033972554623 2.71208228814212e-36 -1.03382366109823e-20 -1.88973397494322e-23 -2.29140338739098e-54)
(0.0250740068780076 1.99759430958817e-06 1.3485344930436e-35 28.8366015189251 4.47140534522573e-05 3.89495335045878e-35 -1.34264289982608e-18 -2.07990922497562e-24 -1.84162805482439e-54)
(0.671567238798517 0.000706792629945919 7.72037524895742e-35 25.0043682176829 0.0181696525262998 8.99346224000491e-34 -9.31746290728661e-18 -6.77415507004806e-21 -3.35967783600972e-52)
(1.10151681561427 0.0032372751154573 1.70008206839596e-34 21.4904304854135 0.056604963973234 3.49018803990651e-33 2.49487376500224e-21 1.09262513237569e-23 1.06395405894613e-54)
(1.35344988337193 0.00783416732170561 -5.18652111536154e-35 18.254961155035 0.100482578084617 2.1238136003529e-36 -2.47391430580103e-21 -1.08344597782066e-23 -1.05501577036285e-54)
(1.46585353356032 0.0137939223750098 1.81496162601127e-34 15.3341467030694 0.140271633512318 -6.76851211689963e-36 0 0 0)
(1.46335994104644 0.0200079046978299 2.06802365051038e-33 12.6265155877597 0.169583259664097 1.17600353818015e-32 -1.8942034186719e-17 -2.54424372331299e-19 -1.76796747858909e-50)
(1.37917529445832 0.0253139464979918 2.97372616987746e-33 10.2451400809793 0.185799624451663 1.83498785665107e-32 0 0 0)
(1.23778217971749 0.0290165383656189 6.14659768657971e-33 8.11262544971067 0.188583130279844 4.03121875570531e-32 2.44610378764079e-17 5.68636940567841e-19 1.21545310658787e-49)
(1.05082933394085 0.0302613966969359 6.23486855861672e-33 6.2032178583059 0.177598672760598 3.68253630821357e-32 0 0 0)
(0.838318541285564 0.0287431495680175 6.19490452328165e-33 4.5246206521262 0.154543814262849 3.34649524645326e-32 -1.37177671619268e-17 -4.68557449604143e-19 -1.01457897853745e-49)
(0.639236203088411 0.0253455042813297 6.01060282492846e-33 3.20395361497008 0.126793514460121 3.0170304198366e-32 9.74009231552737e-18 3.85463391587878e-19 9.17332039665455e-50)
(0.451578937049772 0.0202570693151889 2.28198525970333e-33 2.11606230269233 0.0949108210841356 1.09018466505226e-32 -1.44292706751083e-22 -9.02664482399394e-24 -1.66306964272977e-53)
(0.294805658301401 0.014648905549706 5.43366623189548e-33 1.30720273055687 0.0650931728190896 2.41687484253229e-32 4.02401488996198e-23 5.17757039430217e-24 2.65378009678771e-53)
(0.172863500837606 0.00925018001172818 1.60867925577457e-33 0.728551282117634 0.0391861538388684 8.41878892689444e-33 -3.92658287899642e-23 -5.05220776289367e-24 -2.5895250831854e-53)
(0.093106705635456 0.00523505568292176 -3.7097202778917e-34 0.376406047443668 0.0213554184444578 1.27958275591845e-35 0 0 0)
(0.0445308206983188 0.00245554634673244 4.16278453700599e-40 0.171516499589257 0.00960500535519459 1.35607675238432e-39 -3.23835601766641e-23 -4.37856386771154e-25 -4.07693259286303e-60)
(0.0193543444664964 0.000928302808677936 1.07833229942462e-32 0.0699627139651876 0.00341064236412426 3.78695005501946e-32 3.15528159244859e-23 4.26623938127296e-25 3.97234593532562e-60)
(0.0105361626326488 0.000371930739103248 1.45428573867375e-32 0.035375292351519 0.00119552011478817 5.17708415157053e-32 2.18426508034309e-19 7.38540121214307e-21 3.19441076937933e-49)
(0.0108352538342589 0.000417217299926396 1.11088797740307e-32 0.0365510828962358 0.00134118308518444 4.48759776449531e-32 0 0 0)
(0.0154352122355252 0.000769719172473959 -7.80118863639083e-34 0.0535835159538474 0.00264083253399912 3.09022616151685e-35 0 0 0)
(0.0222189472593514 0.00124883856340195 5.31044321141993e-34 0.0798726521375303 0.00448810817007116 -2.21205920398213e-35 0 0 0)
(0.02619668894919 0.00151553944637305 7.26340045683896e-33 0.0964519176483264 0.00558416249744424 2.72272097185857e-32 -5.94801168192169e-19 -3.44398875489132e-20 -1.67928471417659e-49)
(0.0303489389662884 0.00179584557518558 -1.20277162286714e-34 0.113359704254069 0.00672958182003067 4.79236950633022e-36 1.57586261802903e-23 7.43616293149543e-25 -6.82330678138559e-54)
(0.0323724427320249 0.00186421074210557 5.02864328347293e-33 0.123915044062437 0.00717158439519095 1.93569005273013e-32 -7.63467158916268e-19 -4.41787376210574e-20 -1.19221302255016e-49)
(0.0322181779880366 0.00179222878756111 -3.9540382587981e-34 0.126766141818399 0.00709611640067465 1.74486040373298e-35 0 0 0)
(0.0304070488641095 0.00159374840762255 5.40832360656859e-41 0.123352278930688 0.00651843845813449 -2.44273160573584e-42 0 0 0)
(0.0278626281998307 0.00137011515635132 6.41493960724591e-34 0.117152386465809 0.00582286877612127 1.79047323231659e-33 2.8378145787321e-22 1.07846478132421e-23 9.97192663560297e-54)
(0.023490130854651 0.00103842014048718 1.1547331364284e-33 0.103736403089749 0.00465217137892288 4.80617279481372e-33 3.16912915607407e-19 1.42121074408662e-20 1.46950301582618e-50)
(0.0188051721387499 0.000750899426408518 2.04509235943611e-34 0.0871822550217189 0.00354532947618831 1.87299826643092e-33 2.27570948834558e-22 7.19670458407475e-24 2.00858166517932e-54)
(0.0144716867929879 0.000502117818925415 1.80524228905059e-34 0.0714528758816752 0.00254601311485621 9.30792017361086e-34 2.17109081909015e-19 7.73656395218231e-21 2.82932752110224e-51)
(0.00969104628177326 0.000277043510879465 2.30188562184984e-34 0.0520313835414232 0.0015539884257347 1.15616792830916e-33 -1.57811536672554e-19 -4.71191589289319e-21 -3.51176565555589e-51)
(0.00606004794835572 0.000137432416407324 -1.1369204847695e-35 0.0360686475462176 0.000882786587767144 5.22359011544997e-37 0 0 0)
(0.0030277974207896 4.44636134949396e-05 1.1434143830944e-34 0.0217149517468397 0.000392462300868767 6.56970398117656e-34 0 0 0)
(0.00137255196456962 1.5000034459681e-05 -8.17798409421429e-36 0.0129547267425547 0.000200652405793763 3.69524962437643e-37 0 0 0)
(0.0012278083767576 2.74063591233803e-05 1.79176445652922e-35 0.0126054966282789 0.000262450143823747 1.21116554155682e-34 3.23288976132843e-23 2.93057993262539e-25 3.4891845595408e-55)
(0.00266821251767841 6.53684683177258e-05 6.92113924340551e-36 0.0237099459859572 0.000534038370332225 1.0850614568886e-34 -3.19597610919145e-23 -2.89711810244282e-25 -3.44934449242398e-55)
(0.00569740103155351 0.000109992101541844 2.96201791436632e-36 0.0501168252431617 0.000936516692422993 2.49761460937754e-35 7.51818973812976e-20 1.40512448139443e-21 3.74744602952727e-53)
(0.0101293892832681 0.00014538074631947 -7.53221097966206e-37 0.0966625740010087 0.00138227200816419 3.15176305210527e-38 0 0 0)
(0.0155874873679733 0.00016022993777857 4.25566551451407e-43 0.168866598600998 0.00176661550108529 2.67795413650423e-42 3.3294493587571e-23 2.79818248270409e-25 1.52593344112137e-62)
(0.0212593487075706 0.000149321377477308 9.74064335497109e-45 0.270640419426077 0.00198038956048747 2.65432133431788e-42 -3.30856176618195e-23 -2.7806278394728e-25 -1.51636036384025e-62)
(0.0262835167867991 0.000117091434293466 2.87159068590646e-43 0.410702320752043 0.00197274259747251 -1.07683989729927e-44 0 0 0)
(0.0295330098490288 7.37507845627399e-05 1.13355008418748e-38 0.596868913953108 0.00170906049792603 2.56680184082629e-37 2.96299033467133e-22 3.70156805035035e-25 1.2302838247383e-61)
(0.0294216222593068 3.27408052415224e-05 2.13010532099397e-38 0.837178013347748 0.00123343377645059 1.34289126281202e-37 -7.7445017816638e-22 -5.8295498305262e-25 -6.95362020970552e-58)
(0.0243344426819268 6.56948941254646e-06 1.34591616771188e-33 1.15111010454718 0.000659716282627146 8.72364442053059e-32 4.78267160623094e-22 2.13465769908814e-25 6.94294360974795e-58)
(0.0152122753960929 -3.9872026246582e-07 4.85706644282898e-34 1.56362388708378 0.00023674233353277 1.03318159722132e-31 1.46692516339063e-19 2.20494386715807e-23 9.62151711315293e-51)
(0.00914222579384861 -1.19094495142705e-07 -1.38963987239416e-39 1.99704242041876 7.43767769492838e-05 1.54367543244987e-39 -1.05626858273968e-21 -7.75135023375973e-27 -6.00831296777887e-59)
(0.00642772609202902 6.19588709320766e-09 -1.04934391590184e-40 2.38002636015191 3.3566053816104e-05 3.47025498048376e-41 -1.58768426972838e-21 -1.24915623224634e-28 -5.2157873490965e-62)
(0.00535424525788197 -4.7700227004562e-10 -5.57744709564348e-44 2.71902394307348 2.03107108959103e-05 1.05351972275221e-42 -1.20156351656174e-21 -7.35124400828064e-27 1.85674370212709e-63)
(0.00475209340401983 -1.0182552418384e-09 -6.01404461295779e-44 3.02545332689838 1.39548805260034e-05 2.80305622745178e-41 1.80013731011002e-21 8.79230733343767e-29 4.99191412065113e-62)
(0.00424560681636595 -5.90061769802788e-10 -1.1838510184427e-42 3.30375269823257 1.00681428997627e-05 1.12314615792359e-41 -1.87781903814704e-23 -5.72247995823331e-29 -6.363120998549e-65)
(0.00379252956035695 -2.84319093253754e-10 -3.85962594091181e-48 3.55659555657394 7.35576320934682e-06 1.14421776839454e-49 0 0 0)
(0.00337304166570503 -1.36360454846271e-10 -1.17658882055473e-68 3.78550599026313 5.39206528250992e-06 7.99837560137374e-42 0 0 0)
(0.00298689672993112 -6.3746215366534e-11 0 3.99186782444564 3.95584648867225e-06 7.93241355317961e-42 0 0 0)
(0.00263594977919315 -2.86094308877338e-11 0 4.1772096359278 2.90327600036347e-06 0 0 0 0)
(0.00232035249556622 -1.22658487087988e-11 0 4.34317252482213 2.13297206221824e-06 0 0 0 0)
(0.00203929201374879 -4.96134846631496e-12 0 4.49145350322221 1.56993495744258e-06 0 0 0 0)
(0.00179094950595455 -1.88727607912114e-12 0 4.62373968062714 1.15866175681252e-06 0 0 0 0)
(0.00157285449291042 -6.67555759205253e-13 0 4.74165738268804 8.58160460230438e-07 0 0 0 0)
(0.00138226205850468 -2.028803132087e-13 0 4.84674134628738 6.3835927525363e-07 0 0 0 0)
(0.00121635703643909 -1.0552355269382e-14 0 4.94041245064333 4.7735452020179e-07 0 0 0 0)
(0.00107242504023798 8.79345115496564e-14 0 5.02397411375608 3.5913645764942e-07 5.30740614136647e-43 0 0 0)
(0.000947914835381022 1.4713482186782e-13 3.70829187142258e-44 5.09860629936329 2.72157351710303e-07 5.29480547056489e-43 0 0 0)
(0.00084050875693226 1.73994582241785e-13 3.70417981983555e-44 5.16537386762642 2.07957657179092e-07 9.09769621743311e-43 1.60134680594255e-21 1.66609104829615e-32 1.48706190324306e-63)
(0.000748090837150666 1.66391525502041e-13 -3.70829872727085e-44 5.2252322122736 1.6045232474208e-07 1.95520722946901e-42 -1.60141062239678e-21 -1.666157444921e-32 -1.48712116524523e-63)
(0.000668852664326091 1.21182822790056e-13 -3.70418667568563e-44 5.27903137724102 1.25181736777501e-07 1.22120950314756e-42 0 0 0)
(0.00060108468900423 5.75698434251563e-14 0 5.32753672795995 9.89439648068275e-08 2.81195121666834e-43 0 0 0)
(0.000543557225538832 -4.09910313271216e-14 1.64491911389807e-44 5.37141694570956 7.9349456449895e-08 2.03041965690887e-43 0 0 0)
(0.00049471524087645 -1.03940748145482e-13 1.64378497436303e-44 5.41129318728913 6.47747393646126e-08 4.35162732073319e-43 -1.66269973385641e-21 -2.06779388504082e-32 -6.59782140856418e-64)
(0.000454287743405634 -2.21617627817111e-13 -1.64491839889818e-44 5.44767347444345 5.38229648800661e-08 3.77612697798517e-43 1.6626897184568e-21 2.06778142952546e-32 6.59778166607994e-64)
(0.000419959888915547 -2.03540429727751e-13 -1.64378425936402e-44 5.481108604684 4.58998742466574e-08 1.20446003771644e-45 0 0 0)
(0.000394200653005889 -2.86080111332845e-13 2.01431417280527e-45 5.51190583245376 3.98049448023065e-08 4.47700986888352e-43 0 0 0)
(0.000370227168145393 -1.47528656392373e-13 1.8092849506123e-47 5.5407412979573 3.61752134164798e-08 1.30519495218855e-43 8.47792956244874e-22 1.72467880282085e-33 2.03872555032563e-65)
(0.000361009370616667 4.63203209033996e-13 -3.65559555687877e-46 5.5674335673644 3.26639105787735e-08 1.75757119596035e-44 3.62127887361793e-24 4.6463835334844e-33 -3.66692170289209e-66)
(0.000339527079556142 2.71727190718089e-13 1.03206570906087e-45 5.59350255562788 3.3252034984183e-08 4.05728712760901e-44 -8.51404887114143e-22 -6.37106342901546e-33 -1.67200927316358e-65)
(0.000362739392511926 1.00713175058581e-11 2.02437782568919e-45 5.61693369455502 2.97863442102425e-08 1.48086197671617e-44 -8.58449955416772e-22 -1.10121976219652e-31 -4.7379246423899e-65)
(0.000315193055632695 9.9379021409568e-12 5.81049281856712e-46 5.64306110600949 3.97864222828419e-08 5.18344631403071e-44 1.72005014482446e-21 3.19929409887878e-31 1.0058635572134e-64)
(0.000442407270969153 1.40878610568716e-10 -3.52484198096845e-45 5.6621250783077 2.81444699322517e-08 2.30401032872759e-44 -1.29464933706621e-21 -1.02129298146906e-30 -6.2133655151994e-65)
(0.000247464943183291 2.52873512048795e-10 -1.63122798020909e-45 5.69596710011228 8.01675392369746e-08 2.10057257341131e-45 4.3302526944422e-22 8.11474247600617e-31 8.92526397993167e-66)
(0.000764439255868129 2.10768277188696e-09 -1.48310601621763e-46 5.70153715920468 1.91808364641162e-08 5.49667195725311e-49 0 0 0)
(3.08853298734384e-05 6.32736858118535e-09 0 5.7701817253316 4.12001722203467e-07 0 0 0 0)
(0.000998020722156249 3.19835754273974e-08 0 5.72691990639325 2.65852760578734e-07 0 0 0 0)
(0.00181777204876527 2.76521114122223e-08 0 5.87390756690922 6.32550770886627e-06 0 0 0 0)
(-0.0013569512575049 9.9883307716684e-09 0 10.9943914984155 3.16155867526119e-08 1.55394394846194e-43 0 0 0)
(-0.00213022778705644 1.55756265112634e-08 4.34866682387866e-43 10.984325262015 4.15380879812736e-07 1.56626088069659e-43 0 0 0)
(-0.00382061421987464 9.16759888892467e-09 4.35847347322889e-43 10.9598464853676 8.07125597988754e-07 2.69836882354652e-43 3.61567132159154e-21 1.66199442524399e-28 4.16659085088024e-63)
(-0.00468122010966241 7.50819855467881e-09 -4.34866683410784e-43 10.9219819000896 1.12948747571442e-06 2.6802264654398e-43 -3.61567141308787e-21 -1.66199446730157e-28 -4.16659095631786e-63)
(-0.00537011780903779 1.17691963692021e-08 -4.35847348345804e-43 10.8743643269868 1.55046609591195e-06 -1.61515819911135e-45 0 0 0)
(-0.00616894789633554 1.4650424043869e-08 0 10.8172362749464 2.05843210638269e-06 1.00278489765113e-41 0 0 0)
(-0.00701079625716792 1.78653108116974e-08 1.80414320664454e-42 10.7502391447252 2.66523855273855e-06 1.00651234019824e-41 0 0 0)
(-0.00791153779650316 2.27288754686294e-08 1.81238855475913e-42 10.672975888203 3.42269488850915e-06 -2.88067163860938e-41 -6.93329331679294e-21 -1.0456130764267e-27 -3.46120769236043e-62)
(-0.00890863789107445 2.92094962223134e-08 6.38863967656166e-44 10.5846888493127 4.38317819349283e-06 -2.88835314537609e-41 6.93328995106112e-21 1.04561256883918e-27 3.46120601213484e-62)
(-0.0100227123329608 3.77649619696418e-08 6.6744259900502e-44 10.4843045019597 5.61236995366453e-06 1.15621517924663e-42 6.7521087836259e-21 1.68659297415663e-27 3.58622711533494e-62)
(-0.0112752828506855 4.92230199765747e-08 -1.86802977168935e-42 10.370477152332 7.20142790888461e-06 1.14347008697711e-42 -6.75211030713456e-21 -1.68659335471018e-27 -3.58622792451149e-62)
(-0.0126919951219666 6.46404919049265e-08 6.22422590418118e-42 10.2415582058707 9.27392526075716e-06 4.43767604785053e-41 0 0 0)
(-0.0143011630557775 8.55426303287144e-08 3.31571526534848e-41 10.0955570408599 1.19996745712744e-05 4.9974244737285e-41 -1.27717114101623e-20 -7.19002084939193e-27 -7.89768592571068e-61)
(-0.0161355671017338 1.14203592320362e-07 -8.10103984922766e-42 9.93009274319581 1.56164994304568e-05 6.76189629916919e-41 2.5234611722465e-20 1.65660388929016e-26 1.42447742123843e-60)
(-0.0182339017248041 1.54046365246134e-07 -3.31540089511911e-41 9.74231459672706 2.04636430806091e-05 4.7177644064608e-41 -3.49015679659322e-22 2.94860626523448e-27 -6.34601915825311e-61)
(-0.0206441938214529 2.10419559403037e-07 3.80793671514997e-41 9.52881008039811 2.70349365101515e-05 5.66317956081567e-43 -3.951511555978e-22 4.0276473267794e-27 7.28878350227053e-61)
(-0.0234240710629276 2.92145591390129e-07 9.87133796511816e-42 9.28543200141675 3.60689255268698e-05 2.36790837221928e-41 -2.29890334789724e-20 -3.82964375523493e-26 -1.64688975790102e-60)
(-0.0266583852371888 4.13832310560847e-07 -3.80814035309472e-41 9.0071380314954 4.87190285867541e-05 6.3012877210851e-41 1.12703535732725e-20 2.194423632466e-26 9.17920078914364e-61)
(-0.0304287856950932 6.09566118844895e-07 -9.87419900896616e-42 8.68747564991502 6.68105473083377e-05 5.8172849548875e-41 0 0 0)
(-0.0350314159603589 9.39033838473247e-07 1.32177835814801e-41 8.31864450652633 9.393976768837e-05 2.44911751906218e-43 0 0 0)
(-0.0404971359386431 2.03446505255635e-06 3.5190201946356e-40 7.88773613953375 0.000135799189717328 -1.88125120984609e-40 8.69993294592749e-21 9.79953907274381e-26 6.98826480808566e-60)
(-0.0478829015727711 6.38688422299037e-06 1.6551761618484e-38 7.38421865656392 0.000221427048639419 -4.76411390696828e-38 1.09216750904874e-20 -4.96122945253985e-26 -3.97039038790268e-59)
(-0.0632526740668266 1.77035810161321e-05 5.6667080091423e-40 6.86247920189366 0.000457510681940813 -2.31165692545234e-37 -1.26281761417934e-19 -5.90074266442475e-24 -2.11173331100059e-56)
(-0.0869594120283525 3.78051446748158e-05 1.30967279131999e-36 6.39058438767114 0.00103215478064956 2.92015786642916e-38 1.43759349283497e-20 1.18976129330241e-24 6.35817782115925e-58)
(-0.120438293196574 6.00258963067069e-05 -1.85196444806862e-37 6.00693773953721 0.00224462577238341 1.11880411870323e-35 3.10536745437476e-18 1.12201087828113e-21 1.73341532862878e-53)
(-0.164280958888868 6.01310309475712e-05 5.37695330337451e-36 5.72707740637169 0.00452575113435771 -1.2475859069815e-35 1.20582212850101e-20 1.3683291306555e-23 2.44682161151928e-55)
(-0.218878408091379 -1.40936123354468e-05 9.81462275678494e-36 5.5511447357741 0.0084785000874458 -8.14954323661899e-35 -5.77671125561614e-18 -8.82587739409968e-21 -6.44803184942712e-53)
(-0.288354111035748 -0.000279379453713675 -3.79779102495644e-36 5.49031300394255 0.0150225932478292 -4.81723090375625e-35 -1.64840531361681e-18 -4.65229062072317e-21 -1.30587485274676e-52)
(-0.373218932356302 -0.000918579364964919 -6.64970630238789e-36 5.53067093944016 0.0253005376286752 -1.72443378064922e-37 0 0 0)
(-0.482492801002432 -0.00231608878063094 2.29719902142525e-40 5.68347011954369 0.0412764774287015 -1.41380545609332e-39 0 0 0)
(-0.619922637512717 -0.00507642965964662 1.04238385896977e-34 5.95194981427328 0.0654196605905528 2.96942674717462e-36 1.51983956000869e-20 2.15700226301799e-22 4.11125517533717e-54)
(-0.792956702165043 -0.010150371840322 -9.31277880878769e-36 6.32946777749736 0.100978982326785 6.63019850548145e-35 8.95101839172774e-18 1.50424984669117e-19 4.14075700556275e-51)
(-1.01228669254656 -0.0191170007949701 2.07438902873296e-34 6.8287911698238 0.152847727846878 -1.4190706450415e-33 -2.05933733217353e-17 -4.60626058312586e-19 4.27923597482237e-51)
(-1.28977007929441 -0.0343957195126902 7.0147494748767e-35 7.46733551665714 0.227489800915951 6.13773378830984e-35 1.16509824057633e-17 3.7101772009532e-19 3.71342471619633e-51)
(-1.64044184814313 -0.059470928480234 4.38601929260382e-35 8.26400341075355 0.332846163241848 -6.58590833034341e-34 -3.86686291908713e-17 -1.57836728833068e-18 -5.07106337422474e-51)
(-2.07302367265586 -0.0986726240512019 1.11054441260173e-33 9.21469699798487 0.47797682555613 -1.03955332197289e-33 -2.81738905879995e-17 -1.46035347482869e-18 3.2987964395105e-51)
(-2.62664311892263 -0.160503064973144 7.66513264884511e-34 10.3892525322141 0.680136097832829 -2.95595294620074e-33 -1.38124636804049e-16 -9.17669529121228e-18 -1.88193570641853e-49)
(-3.30043021545922 -0.251233796940541 -3.80909908514784e-36 11.7891888754336 0.949857421257348 -2.86130312175475e-33 0 0 0)
(-4.15970210256832 -0.38720433392555 3.36487980365343e-34 13.5022962116141 1.31617294943342 -1.05535286296866e-33 -5.18824917701044e-17 -5.14319705219422e-18 -2.48852279114848e-50)
(-5.20721274462059 -0.578198019256445 -3.40887005550547e-34 15.571832747755 1.79655665281883 5.90548557571297e-34 9.82344012080408e-17 1.13302275201375e-17 3.7489710769241e-51)
(-6.57323324951184 -0.857992568319939 6.66525805663057e-36 18.2141546845617 2.44758665004019 1.17329169447479e-37 0 0 0)
(-8.23557669359342 -1.22149140766856 -8.3003493788392e-35 21.5438135578816 3.2630018051516 2.11033580709262e-34 2.29503543154722e-16 3.4776235977326e-17 2.00996736176064e-51)
(-10.2891704345748 -1.68635782242154 2.87974221429998e-35 25.7033162329702 4.26935718935435 1.80604077320555e-37 0 0 0)
(-12.7239091811066 -2.22407895258718 -1.48865347375179e-34 30.9232193061195 5.43659628845934 3.52015935030988e-34 3.36605762554018e-16 5.89963728634293e-17 6.05483147689816e-51)