/*--------------------------------*- C++ -*----------------------------------*\
| =========                 |                                                 |
| \\      /  F ield         | OpenFOAM: The Open Source CFD Toolbox           |
|  \\    /   O peration     | Version:  3.0.1                                 |
|   \\  /    A nd           | Web:      www.OpenFOAM.org                      |
|    \\/     M anipulation  |                                                 |
\*---------------------------------------------------------------------------*/
FoamFile
{
    version     2.0;
    format      ascii;
    class       volVectorField;
    location    "7000";
    object      grad(p);
}
// * * * * * * * * * * * * * * * * * * * * * * * * * * * * * * * * * * * * * //

dimensions      [0 1 -2 0 0 0 0];

internalField   nonuniform List<vector> 
14000
(
(-0.00151944604991363 -9.71864292118944e-07 0)
(-0.00213271671643034 -2.65582539443092e-06 0)
(-0.000697942213902174 2.04326174673517e-05 0)
(0.000114135274362333 3.76986539251902e-05 0)
(0.000799138769961544 4.26325130443592e-05 0)
(0.00164548399109233 5.13106040362924e-05 0)
(0.0025525800448187 6.23500367999454e-05 0)
(0.00351815089343769 7.41946969700827e-05 8.21066610612325e-21)
(0.00457456004257573 8.78088949404593e-05 -8.21066209969842e-21)
(0.00573720853889983 0.000103738025350901 0)
(0.00702327115156488 0.000122337633292099 0)
(0.00845527555490551 0.00014413969319486 0)
(0.0100587263029769 0.000169784914633416 0)
(0.0118630126394223 0.000200031478652574 0)
(0.0139030800281967 0.000235817891711501 0)
(0.016220263203918 0.000278319403486797 0)
(0.0188655999717465 0.000329038901024844 0)
(0.0218992792784044 0.000389963911106822 0)
(0.0254079117774199 0.000463689472692433 0)
(0.029464775716394 0.000553641561357678 0)
(0.034347271966094 0.000654884477806079 -2.05906394650526e-20)
(0.0404155881017665 0.000716440202004704 -3.14810756583924e-19)
(0.0449520357346363 0.000703664900793502 6.98958636448696e-19)
(0.0461231552696795 0.000668597286952684 0)
(0.0453006501266192 0.000643611199146829 6.02448390016958e-18)
(0.0428193684173481 0.000622946596360859 6.35947686500583e-18)
(0.0390976825596579 0.000559932680600513 -1.30773211951746e-17)
(0.0335486076979896 0.000380036062176393 1.34538888021282e-17)
(0.0271286279786628 5.54414418362247e-05 -1.10064932453842e-21)
(0.0193043240719184 -0.000530494245387759 5.51004644751037e-20)
(0.00937336110255163 -0.00147732134374356 0)
(-0.00116100459341238 -0.00279794714314548 -4.9010605254127e-20)
(-0.0137560564767166 -0.00472174551064321 -5.92068781127749e-17)
(-0.0289367920943767 -0.00741729064785284 1.97659463689165e-20)
(-0.0465511426501676 -0.0109668805345884 -5.86724584185906e-17)
(-0.0654698938566512 -0.0153832495333706 -5.72719462700949e-17)
(-0.090260647357935 -0.0214974824033395 1.10165447797447e-16)
(-0.11765316915815 -0.0287153727871607 -1.02932378120719e-16)
(-0.151347928579383 -0.0382369414252212 9.27233290399295e-17)
(-0.192221956718179 -0.049831047208851 -2.84641396211641e-19)
(-0.248117897578345 -0.06573495087093 -1.01673520077659e-20)
(-0.313816792437435 -0.0827436163361339 1.05819414845315e-20)
(-0.385142248701746 -0.101194183531516 -2.33547254074464e-21)
(-0.471740031530384 -0.119871181469561 2.43673250345241e-21)
(-0.554665810877652 -0.134112723870015 0)
(-0.63234873182823 -0.142726305628162 9.6414937995432e-19)
(-0.706129812945899 -0.145343633741965 4.54858119378935e-20)
(-0.76157958038196 -0.138208992483785 4.38711859856001e-16)
(-0.789541677806327 -0.121884421078456 -1.52667067062982e-19)
(-0.779524172395249 -0.095787303723498 3.42661792700423e-19)
(-0.714901767821157 -0.0635445512256634 -1.90246078136149e-19)
(-0.619417571885318 -0.0331391708545215 -4.80101952487763e-16)
(-0.483460681197197 -0.00539426988767682 -5.33800179813231e-16)
(-0.328238549586307 0.0120253108478634 -5.73874746505602e-16)
(-0.194330618654468 0.0200067378186059 2.57754962118435e-19)
(-0.0920508792444683 0.0208112322301388 0)
(-0.0184762198341051 0.0193334007434836 -1.56800112456286e-16)
(0.0529598057000229 0.0160899285254682 3.06223472694314e-19)
(0.113107021781854 0.0113468696226157 9.67095515505432e-18)
(0.161668084860407 0.00591992301371076 7.56878020639809e-17)
(0.204465898454991 -1.62060367249645e-05 -1.46810598340127e-16)
(0.241150579139692 -0.00624758398538058 1.39764326447528e-19)
(0.269314467308756 -0.0123171772717419 0)
(0.294596569584745 -0.0183864880719661 2.53108828653195e-16)
(0.311510582399888 -0.023905445099258 -4.73906896971735e-16)
(0.323148864125931 -0.0287883527358293 -4.41209335984394e-16)
(0.333323910011828 -0.0335063081438243 -4.0738013385545e-16)
(0.339701032700711 -0.0377138132676239 3.73934621993601e-16)
(0.335983397966325 -0.0404003538047144 -3.40528887877967e-16)
(0.330258181737663 -0.0425254381339617 3.09070641604927e-16)
(0.320473747081419 -0.043691766721652 2.78084851153169e-16)
(0.305991826595413 -0.0438404992455708 2.50314916173863e-16)
(0.287930149360888 -0.0428970007001836 0)
(0.266536486013807 -0.0410870757465604 9.34779518553188e-20)
(0.24742909816172 -0.0391910766509441 -9.10799366035813e-20)
(0.226854420323699 -0.0367073587948633 -3.18083521139093e-16)
(0.208050301415651 -0.0341826728124617 -2.83071821650095e-16)
(0.189860414777397 -0.0315675129444252 0)
(0.175862920667921 -0.0294542673480653 0)
(0.16115152677576 -0.0269857538111266 2.00424529728938e-16)
(0.149058697596119 -0.0249018843059361 8.01542538271418e-21)
(0.138924186977246 -0.0230259273074503 1.59075508424018e-16)
(0.129612265177613 -0.0212031297044015 0)
(0.121512986721278 -0.0195267097933188 0)
(0.114689098261986 -0.018052591828784 -5.13427227048262e-20)
(0.108771277513931 -0.0166446807103969 -9.7424991249804e-17)
(0.102791196938585 -0.0152394713495311 -4.27479944591899e-17)
(0.0982908509684489 -0.0140596664862527 4.38439997635273e-20)
(0.0933704317175041 -0.0128027053287941 3.20472827091676e-17)
(0.0892107667578189 -0.0116810520696758 0)
(0.0851388335178008 -0.0105794412135506 2.30286604410032e-17)
(0.0807858730756686 -0.00947815050448003 0)
(0.076849755555158 -0.00848194196849294 1.53361454652194e-17)
(0.072472844410009 -0.00748545597449127 1.32462142017646e-20)
(0.0680229241930906 -0.00655020607657411 -4.41379981352114e-18)
(0.0632042817435211 -0.00566604522492038 0)
(0.0578786818791574 -0.00484382984788969 -2.14754678535713e-21)
(0.0522863497045874 -0.0041154806441892 2.13407396223981e-21)
(0.0460082853306405 -0.00347527709318135 0)
(0.0388937510403257 -0.00293934221756938 3.42991865155154e-21)
(0.0311025965911876 -0.00254421031462579 -8.09506391858029e-21)
(0.0216644686191218 -0.00227829415064852 6.71487094455607e-19)
(0.00957899284974388 -0.00196148176537583 1.93465894466997e-19)
(0.00099200809386364 -0.00146098752085629 -5.37313021850638e-20)
(-0.00181980653345716 -0.00104684084689388 -5.88750998432901e-21)
(-0.00375324699031716 -0.000806109882909588 -1.30661063143147e-21)
(-0.00519963400520647 -0.00065037469559051 5.82511729586973e-21)
(-0.00610969354591282 -0.000537115600907824 -1.05679782364578e-23)
(-0.00668876778919249 -0.000447742642054278 -5.85856514909076e-34)
(-0.00699827726807209 -0.000374710354507595 0)
(-0.00710151038769817 -0.000314432425222826 0)
(-0.00705215718343449 -0.000264463818481556 0)
(-0.00689055576304909 -0.000223006804658474 0)
(-0.00664954078790884 -0.000188623978801984 0)
(-0.00635517791336613 -0.000160100460748244 0)
(-0.00602790546786756 -0.000136432474949084 0)
(-0.00568345197501911 -0.000116772348202515 0)
(-0.00533388452463796 -0.000100418434546331 0)
(-0.004988206677242 -8.67947236766166e-05 0)
(-0.00465308489327308 -7.54159497284297e-05 0)
(-0.00433334312698575 -6.58994166602208e-05 1.06152287037384e-21)
(-0.00403233805466499 -5.79164899923969e-05 -1.06156517390573e-21)
(-0.00375228974753673 -5.12118715282989e-05 0)
(-0.00349478775787327 -4.55666554334365e-05 0)
(-0.00326031299071758 -4.08159007348875e-05 0)
(-0.00305001390606805 -3.68048786996583e-05 -7.08662470770369e-22)
(-0.00286250422530786 -3.34536948211837e-05 7.08658202087523e-22)
(-0.00270086287006058 -3.06054651944476e-05 0)
(-0.00255878657518873 -2.83277997576606e-05 0)
(-0.00244924323144071 -2.62900493061755e-05 2.48291087402494e-22)
(-0.00234619374375195 -2.50119996835885e-05 -2.35346296500573e-23)
(-0.00230489468898071 -2.33506728730305e-05 -2.24753613408074e-22)
(-0.00221479676193153 -2.35498132944207e-05 -1.79416817319731e-22)
(-0.00231107438826178 -2.10751200707155e-05 3.35648891037628e-22)
(-0.0021186452285929 -2.51250508627564e-05 -2.23727770697601e-22)
(-0.00264223407691094 -1.72870102977381e-05 6.74913045970331e-23)
(-0.00184630399786883 -3.45736551043678e-05 0)
(-0.00392637691137022 -6.61548952030777e-06 0)
(-0.000911721786341554 -9.03933325230347e-05 0)
(-0.0041299195544103 0.000120595651159079 0)
(-0.00151959128386258 -5.14433389114642e-05 0)
(-0.00213127628113128 -5.51160998606367e-05 0)
(-0.000695219020705169 3.78977877653622e-05 3.87587213308661e-21)
(0.000115428916884041 7.88109484889932e-05 -3.87587223116746e-21)
(0.000799603980637052 8.79753844460708e-05 0)
(0.00164616541354422 0.000108592870086237 0)
(0.00255326049563207 0.000130480976805191 0)
(0.00351874687634167 0.000150482505709225 -7.83437027312837e-21)
(0.00457513070337408 0.000171609243437758 7.83436646997336e-21)
(0.00573776488883463 0.000194626362248182 7.93306805440853e-21)
(0.007023809778813 0.000219848742210558 -7.93306984438234e-21)
(0.00845579811533268 0.000247955864143402 0)
(0.0100592336135451 0.000279658776003376 -1.63549648437323e-20)
(0.011863505150644 0.000315720029927629 3.29370610066836e-20)
(0.0139035618308624 0.000357033188896885 2.66128509154064e-22)
(0.0162207443586266 0.000404697944857129 3.104817719405e-22)
(0.0188661063193023 0.000459976020129035 -3.46784317241476e-20)
(0.0218998461946054 0.000524564316051699 1.75198010719571e-20)
(0.0254086329060021 0.000599676179095448 0)
(0.029464868872224 0.000685944450246528 0)
(0.0343414296906978 0.000753671138932101 1.96089812348989e-20)
(0.0404009901477435 0.000580957903555185 9.95256736794387e-20)
(0.0449392329808988 6.35067818937585e-05 -6.68639973937488e-19)
(0.0461257175645275 -0.000507869848252856 4.25803396186804e-20)
(0.045327844368746 -0.00103432215416929 5.79355181638924e-18)
(0.0428787170283656 -0.00153414929122048 4.78330639866685e-20)
(0.0391981012567146 -0.00211147799746591 -1.25232555274505e-17)
(0.0337074555723694 -0.0028991585120397 -1.28880971881447e-17)
(0.0273704614122371 -0.00398105318007134 0)
(0.0196809798068666 -0.00563470269346799 0)
(0.00996020297166695 -0.0079617236831591 5.41260960287927e-20)
(-0.000259015335200111 -0.0110528654116747 5.60519103306043e-17)
(-0.0123716232560399 -0.0153473625232113 4.49900554780493e-20)
(-0.0268285428549038 -0.0210999705830004 5.65315012153216e-17)
(-0.0434096697975857 -0.028409327735486 -5.58688283674602e-17)
(-0.0609272019535652 -0.0374483800357014 1.60108658314823e-19)
(-0.0836572808467614 -0.0496553987681487 -2.0996607339943e-16)
(-0.108485258770946 -0.0637297577628669 0)
(-0.138523839020523 -0.0823851268934872 -8.84503082237816e-17)
(-0.174890827062647 -0.104605589883046 -6.09806994666515e-19)
(-0.224254753445224 -0.134809710284905 0)
(-0.283342457566107 -0.165083856628851 2.43652828340309e-17)
(-0.347113353919485 -0.198388736271177 0)
(-0.427024909951021 -0.229718374659697 -6.54636987493282e-17)
(-0.505940920207416 -0.251295775892158 1.02258111949101e-20)
(-0.582927698703531 -0.261517885137475 1.7216383457131e-18)
(-0.65946553633458 -0.259143409409049 -3.09417706177225e-16)
(-0.722512551254919 -0.236073737272489 4.212205291872e-16)
(-0.761271208802968 -0.194665025245513 -2.65339921511989e-19)
(-0.764575643206621 -0.132821070857946 1.50309127187966e-19)
(-0.712420789051142 -0.0612148323621382 -7.99747607830892e-16)
(-0.62534593398328 0.00319303750530733 4.57997079068338e-16)
(-0.494302867161056 0.0604782300297402 -1.43169648951446e-19)
(-0.339251933651672 0.0904835574162615 5.47285505873869e-16)
(-0.203215313686947 0.0994066320177405 -5.73945455939365e-16)
(-0.0980315849582728 0.0927390390001626 -2.88766390378921e-19)
(-0.0219769781006752 0.0840646442859015 1.49608505520992e-16)
(0.051424314344504 0.0734473087049912 2.90036648538184e-19)
(0.113011954088027 0.0603449570832253 -1.87423114528943e-17)
(0.16252354740295 0.0465087195402373 -7.24971442780697e-17)
(0.205812641243236 0.0322104989419343 1.40321976972903e-16)
(0.242564941974878 0.0176023195134978 -1.33349384560161e-19)
(0.270440049592932 0.0034978108678503 0)
(0.295140860692784 -0.010220872646199 -2.41503365563721e-16)
(0.311249776628492 -0.0228996168148257 0)
(0.321971259461138 -0.03391834548759 4.210703138869e-16)
(0.331087729408118 -0.044367271697986 3.88754844352244e-16)
(0.336386652659645 -0.0537038603670352 -3.56773276705067e-16)
(0.331739823518872 -0.0601783096395407 3.24973407110971e-16)
(0.325144983608749 -0.0652919049884284 -1.11206681952345e-20)
(0.31470631219682 -0.0684487491133117 2.65573651808563e-16)
(0.299754670206397 -0.0697527393065673 -1.11785832206801e-19)
(0.28154911162046 -0.0688400554263962 1.08987632453777e-19)
(0.260155531889424 -0.0664049996886666 0)
(0.241205939218084 -0.0635177649564374 -3.40458399515251e-16)
(0.220918335899322 -0.0596980370365704 3.03535809435686e-16)
(0.202493028037233 -0.0556264440573601 2.70372854728561e-16)
(0.184694911278749 -0.0513856327849196 1.7437874434801e-19)
(0.171070880047555 -0.0479384822335237 -1.09910337189057e-19)
(0.156827246829243 -0.0438901399426544 -1.91392916276427e-16)
(0.145108849950872 -0.040472469541791 8.72989093247662e-20)
(0.135358764822511 -0.0373733024651824 -1.51618305131004e-16)
(0.126415956313629 -0.0343995787306397 -6.91731379562009e-20)
(0.118666804703772 -0.0316225158197107 0)
(0.112151161115572 -0.0292103133602256 5.30039375201695e-17)
(0.106545978768393 -0.0269067915134605 4.64686492812551e-17)
(0.100851623820258 -0.0246035537026186 4.08388074144988e-17)
(0.0966036219509497 -0.0226779813719575 3.54894766881552e-17)
(0.0919367033946458 -0.0206433038705126 -3.0608574240336e-17)
(0.0879912553372414 -0.0188394274197185 2.37030135766604e-20)
(0.0841283560304416 -0.0170839384276796 2.20082054588492e-17)
(0.0799548921872637 -0.0153621018861557 0)
(0.0761761053672673 -0.0138090649613529 0)
(0.0719365188639852 -0.0123172021553924 -1.14288066969432e-17)
(0.0675990907797397 -0.0109597574916921 4.20179001153132e-18)
(0.0628716945332648 -0.00973960773477372 0)
(0.0576160369697952 -0.00867432912255639 0)
(0.0520752265938624 -0.00781908441129942 0)
(0.0458350250095792 -0.0071939944468001 0)
(0.0387468183532235 -0.00682926545240677 -6.62169723284432e-19)
(0.0309774326774483 -0.0067731462499434 -4.98753036830717e-19)
(0.0215759558374988 -0.00704878082747605 4.18571487176714e-16)
(0.00956163890766349 -0.00699935853502905 4.74150057158907e-16)
(0.00102640126547313 -0.00586821956213233 5.68011029973583e-21)
(-0.00178332511432256 -0.00458465292202216 -5.68009505480292e-21)
(-0.00373168105887263 -0.00382946803540884 6.95043576039188e-22)
(-0.00518479224889005 -0.00329386092675679 -5.27053782160795e-21)
(-0.00609758757632833 -0.0028665423162179 5.28047779765374e-21)
(-0.00667819844955559 -0.00251193012058144 0)
(-0.00698878133788689 -0.00220626382967274 -4.51381387709683e-21)
(-0.00709295796977833 -0.00194034257860947 4.51385292993642e-21)
(-0.00704447891098339 -0.00170794868619159 0)
(-0.00688369469295564 -0.0015045100699588 0)
(-0.006643439814141 -0.0013264704907876 0)
(-0.0063497764918481 -0.00117072101905044 0)
(-0.0060231416322668 -0.00103454057117444 0)
(-0.00567926409782316 -0.000915496853139809 0)
(-0.00533021396053848 -0.000811435380828428 0)
(-0.00498499794935338 -0.000720468548781928 1.1844050388626e-21)
(-0.00465028728114887 -0.000640910099012969 -1.18442513931626e-21)
(-0.00433091017461607 -0.000571324199344658 -1.01247818192504e-21)
(-0.00403022772109745 -0.000510414241582102 1.9478939328884e-21)
(-0.00375046451293149 -0.0004570903465572 -1.79888618174618e-21)
(-0.00349321409283152 -0.000410370306022991 8.63580790597409e-22)
(-0.00325896095110432 -0.000369444912441655 -7.3431966639794e-22)
(-0.00304885787052282 -0.000333536890827321 7.34327286689841e-22)
(-0.00286151972490302 -0.000302129450618524 -6.21192514613597e-22)
(-0.00270003297809928 -0.000274446717169928 5.16814151560324e-23)
(-0.00255808749347535 -0.0002505028923074 1.09005998428046e-21)
(-0.00244867415923781 -0.000228904376565828 -5.20553289942817e-22)
(-0.00234571321369008 -0.000211321327812449 -2.14388262309889e-22)
(-0.00230455562454333 -0.000193313495467031 2.14389186875444e-22)
(-0.00221445924907426 -0.000183066002973518 0)
(-0.00231101912428521 -0.000162957157990068 0)
(-0.00211826955165787 -0.000168253239413243 0)
(-0.0026428059850937 -0.000126050307613759 0)
(-0.00184539662718562 -0.000181569112315505 0)
(-0.00393061803634849 -5.45662343652417e-05 0)
(-0.000901587956796467 -0.000338253057537489 0)
(-0.00413232134879195 0.000623765751218623 0)
(-0.00151985595818214 -0.00017995651917034 9.27771911148278e-22)
(-0.00212614123653397 -0.000180839646400856 -9.27772041224449e-22)
(-0.000687984108120789 2.80210273008249e-06 0)
(0.000117607968577443 6.13153274799419e-05 0)
(0.000800920596548829 8.08654811256705e-05 0)
(0.00164805816868123 0.000120590170107373 7.41991472161285e-21)
(0.00255492429615196 0.000157420530348859 -7.41991539834299e-21)
(0.0035202205987306 0.000189436526853558 0)
(0.00457659738304747 0.000222039975453797 0)
(0.00573924615747979 0.00025598027333025 0)
(0.00702532285673941 0.000291718244468265 0)
(0.0084573705010954 0.000330227570416027 1.54219226177754e-20)
(0.0100608834852789 0.000372320875043965 -1.54219086463159e-20)
(0.0118652439613007 0.000418714363173611 1.58223562078338e-20)
(0.0139053970672064 0.000470063736994767 -1.58222032787436e-20)
(0.0162226709868127 0.000526933131663375 0)
(0.0188681068838993 0.000589412947995746 0)
(0.0219018186142503 0.000657115228564402 1.71171251922197e-20)
(0.0254102874175756 0.000726196695183446 -1.71170891491981e-20)
(0.0294641077073021 0.000784848175642461 0)
(0.0343230816503799 0.000782065161329942 3.59530404275335e-23)
(0.0403466164714831 0.000267723866851818 0)
(0.0448657152490732 -0.00110568288059719 0)
(0.0460678678368828 -0.00269338635593986 0)
(0.045308831059207 -0.00427976738170326 -1.10540372934467e-17)
(0.0429202627670547 -0.00588234295472493 5.69654465354789e-18)
(0.0393277241781071 -0.00761808709735119 5.21322035915644e-20)
(0.0339643972222857 -0.00964119301693953 1.23354215087679e-17)
(0.0277908123694148 -0.0119913401868454 -4.88076301370913e-20)
(0.0203370662087919 -0.0151392955154219 0)
(0.0109218491093983 -0.018977752601559 -5.16023950695661e-20)
(0.0010849083836784 -0.0236948704253715 5.2154411100306e-20)
(-0.0105429395189911 -0.0297828258810737 8.84979726941194e-20)
(-0.0244086517117043 -0.0373505569971481 0)
(-0.0403210838860435 -0.0463766045600164 5.33544731231128e-17)
(-0.0570994895980522 -0.0572069188406503 1.16937699873574e-19)
(-0.0789645069664532 -0.0711729340291993 4.21689575605821e-19)
(-0.103074046830837 -0.0863814828348146 4.24529856152778e-20)
(-0.132286818691659 -0.106379771908142 8.32081405496734e-17)
(-0.16825274237462 -0.128804598992796 -6.9939171797428e-17)
(-0.217390760007755 -0.158216380414319 1.4995237529353e-20)
(-0.278037159559228 -0.183128661266572 -4.53399927181604e-17)
(-0.344051333491612 -0.209895280494698 0)
(-0.428618400382259 -0.228552140977716 6.24332548305161e-17)
(-0.514035439621798 -0.233034999951677 1.46959879259735e-21)
(-0.59872931913307 -0.222795810517834 -2.03046465452263e-16)
(-0.683826101118419 -0.195720980380152 -1.33980535865237e-18)
(-0.755766884722096 -0.143472634044765 -4.01471513467925e-16)
(-0.80190796636046 -0.0718445460531242 -1.14071230705121e-19)
(-0.810571334701837 0.0211623755600377 -1.69145333072128e-19)
(-0.759349226227728 0.115981534392056 7.63046808881168e-16)
(-0.66882668564622 0.193414095103331 0)
(-0.531436666283583 0.254456427159327 4.58850724711458e-19)
(-0.367331504082842 0.269739168420079 -1.04303164339819e-15)
(-0.222632254942622 0.257231892758088 -6.96815792847018e-21)
(-0.110165072217993 0.225607411125435 -2.80406020278429e-16)
(-0.028827448219233 0.198145607267944 0)
(0.048337438355456 0.171306666144701 -7.11791156714479e-17)
(0.112556336251064 0.143892017195563 8.80178931589406e-18)
(0.163897535974055 0.11837096485613 0)
(0.208420262764904 0.0943290028277159 -1.33498268428455e-16)
(0.245966100486163 0.0713437295726763 0)
(0.274327862228482 0.0501612709729414 2.43857622519497e-16)
(0.299321093897636 0.0306408309790262 2.30367739053876e-16)
(0.315512824559751 0.0125697155047823 -2.05143025228575e-19)
(0.326314965435198 -0.00237596219698435 4.01901681471512e-16)
(0.335398066357118 -0.0163243581606201 -3.71187140705521e-16)
(0.340655586552151 -0.0286641975373237 1.1377547672653e-20)
(0.335862434271723 -0.03805520384257 1.57082786688828e-19)
(0.329212431228583 -0.0451990089493431 1.32166994263321e-19)
(0.318644456285195 -0.0503299059124603 -2.53634391327913e-16)
(0.3035702806 -0.0533788392071425 0)
(0.285182814117969 -0.0541158820905522 0)
(0.263556628556628 -0.053266090875009 0)
(0.244406062717823 -0.0515897883202324 3.2473562956424e-16)
(0.223831559415671 -0.0491843066097292 -2.8999046025153e-16)
(0.205136845936054 -0.0462964856215794 -5.16257447344127e-16)
(0.187049108608471 -0.0431755110911454 2.30354668643693e-16)
(0.173180954662048 -0.0406439587423806 0)
(0.158656949308797 -0.03761457157258 1.82917436204809e-16)
(0.146695630536827 -0.0350038888297869 1.63113175165509e-16)
(0.136736582561881 -0.032593683130948 1.45064136805913e-16)
(0.127576663383901 -0.0303633371132504 0)
(0.119643770250641 -0.028182932068601 5.31264391946823e-20)
(0.112963037974413 -0.0263153507254146 -5.05749183836678e-17)
(0.107198249032227 -0.024593740109983 0)
(0.101356874020927 -0.0228284297497058 -3.89999240540547e-17)
(0.0969844687596879 -0.0213821697613152 3.52697229505763e-20)
(0.0921906878366428 -0.0199024018004022 5.34377973156598e-20)
(0.0881340003670276 -0.0186138821688821 -5.25763904359431e-20)
(0.0841669639731281 -0.0174279961181911 -2.10209025295402e-17)
(0.0798935241327685 -0.01632367760928 1.74319683637198e-17)
(0.076036483995137 -0.0153399775065535 0)
(0.0717202151888289 -0.0145218970609543 1.09140729275383e-17)
(0.0673207016382349 -0.0138642088322272 -1.32675712906145e-20)
(0.0625444629715296 -0.013405429010046 2.752965631641e-18)
(0.0572567157265187 -0.0131342576001231 0)
(0.0517009592756965 -0.0130990560742736 -4.97863884068725e-19)
(0.0454635454449962 -0.0133704991813851 3.33610269626647e-21)
(0.0383983875108155 -0.0139446650078518 6.25382461552589e-19)
(0.0306737893857084 -0.0148423703627436 9.52895260262139e-19)
(0.0213758020087138 -0.016130625016647 -4.0112148284526e-16)
(0.00954675353545222 -0.0164534576738108 -4.50087305176867e-16)
(0.00113522316171351 -0.0143946224631418 -4.30340359290326e-20)
(-0.00167698441860479 -0.0118532355876763 0)
(-0.00366251968051822 -0.0101921748862912 0)
(-0.00513118328807716 -0.00888833380918892 5.01481948864189e-21)
(-0.00605293954413526 -0.00780837200052841 -5.01468361273126e-21)
(-0.00663992527480477 -0.00689947004122747 -3.88112751908041e-16)
(-0.0069551687456137 -0.00611070920310334 -3.69086931979045e-16)
(-0.00706326138723055 -0.00542095490413687 -8.3362696924564e-21)
(-0.0070181775144877 -0.00481489925992612 4.03910010812228e-21)
(-0.00686039964100004 -0.00428117804678979 0)
(-0.00662283304369782 -0.00381097223153403 -3.29024954864634e-21)
(-0.00633157277604574 -0.00339667341136746 2.31259064225986e-22)
(-0.00600708161521411 -0.00303161438276585 5.89860100733208e-21)
(-0.00566510998487636 -0.00270989682778801 -2.83970019305169e-21)
(-0.00531775040236738 -0.00242625876645482 -2.43848710373481e-21)
(-0.0049740295459569 -0.00217609705480451 2.43849949022762e-21)
(-0.00464063927373998 -0.00195528363072922 0)
(-0.00432242651114492 -0.00176026762748038 0)
(-0.00402276929903517 -0.00158785946868705 0)
(-0.00374390853952315 -0.00143532639380496 1.4238976249244e-16)
(-0.00348745252599264 -0.00130022710849172 1.31759417955717e-16)
(-0.00325389688248074 -0.00118049798911439 0)
(-0.00304441064181091 -0.00107419753621069 0)
(-0.00285760874774782 -0.000979933094141641 0)
(-0.00269660779151496 -0.000895836509059431 -5.42745027127619e-22)
(-0.00255506253722074 -0.000821628702870758 5.42745642714412e-22)
(-0.00244605861401908 -0.000754274366181597 -4.51418538309668e-22)
(-0.00234334052102045 -0.000696779047676716 4.51411668788445e-22)
(-0.00230263602311979 -0.000640155540693834 0)
(-0.00221243291862663 -0.00060009141069999 0)
(-0.00230990997774686 -0.000541902290298931 1.41988144018453e-22)
(-0.00211584396080482 -0.000533358533240941 -1.41990488418036e-22)
(-0.00264329765713614 -0.000433495017824902 4.92664132417977e-23)
(-0.00184079548616394 -0.000517609356506751 -4.92661960606138e-23)
(-0.00393875421608028 -0.000251998372469082 1.14395547838095e-23)
(-0.000858743300164339 -0.000744271369049617 -6.69994060822392e-24)
(-0.00415249863011736 0.00129252994983158 -4.73965445359873e-24)
(-0.00151978870975306 -0.000334379285677356 0)
(-0.002116935852667 -0.000329330920194658 -1.76584423140119e-21)
(-0.000676158942324929 -8.77779666085753e-05 1.76584404203537e-21)
(0.000121314172521934 -2.15238545248303e-05 0)
(0.000803838441786131 8.61642429944439e-06 0)
(0.00165158538875101 6.27667142015151e-05 0)
(0.00255787190085569 0.000109266648555717 7.10221847315827e-21)
(0.00352279248131546 0.000148181000953833 -7.10221989548643e-21)
(0.00457905228422726 0.000185823937002178 0)
(0.0057416068676684 0.000222484609613642 0)
(0.00702762153252932 0.000258493603971858 0)
(0.00845964125153085 0.000294646706738511 0)
(0.0100631317210813 0.000331304121267015 -1.48908265365843e-20)
(0.0118674469852642 0.0003684504308316 -2.06778938836196e-22)
(0.0139074962748745 0.000405595150274454 3.04372920773927e-20)
(0.0162245381715391 0.000441500552187312 -3.09628492841426e-20)
(0.0188695048359088 0.000473324834712702 1.56226298096682e-20)
(0.0219022037966234 0.000495797040629291 0)
(0.0254083377565351 0.000496057294533916 0)
(0.0294562333657801 0.000441871615526906 0)
(0.0342831157990742 0.000261461338887474 0)
(0.0402334985634751 -0.000672106115634158 3.71753203978586e-20)
(0.0447029676069829 -0.00293021960356043 -3.71786837739876e-20)
(0.0459147037587545 -0.00550020787017757 2.53045873334521e-18)
(0.0451946575697588 -0.00808858058427678 5.27276585586583e-18)
(0.0428659155968062 -0.0107111818832935 -4.36721030914994e-21)
(0.0393569176879666 -0.0135104984778964 1.13518485811348e-17)
(0.0341167955503215 -0.0166723653556568 -1.16774162102493e-17)
(0.0280887071132796 -0.0201344179127998 2.40713804581476e-17)
(0.0208440805526966 -0.0245881824036108 2.46084524660633e-17)
(0.0116992167317366 -0.0296962974277004 -2.50631416059824e-17)
(0.00218954302657256 -0.0358004050015131 5.08235186541505e-17)
(-0.00901989851140276 -0.0434323672581534 5.13516697309942e-17)
(-0.0223629608327713 -0.0525783902503113 -4.92878266573644e-20)
(-0.0376712497857999 -0.0631823134550656 1.88652407396265e-21)
(-0.0537836599477567 -0.0757048569525739 4.94785281977362e-17)
(-0.0747958013825811 -0.0914951605308666 5.94534533598813e-19)
(-0.0981303905330778 -0.108168884851255 0)
(-0.12637517676077 -0.130022338807214 -7.94176191369476e-17)
(-0.161581174008475 -0.153615510189942 6.5016600895982e-17)
(-0.209732976107823 -0.183850831579922 8.15352598165962e-21)
(-0.270376495505112 -0.206823136380308 2.10709315622747e-17)
(-0.336683410475711 -0.231069927593764 4.12067141482904e-21)
(-0.422789868265054 -0.243419276215644 6.24984738471278e-17)
(-0.511117111376373 -0.238541311843356 -1.08965419819219e-20)
(-0.599944301432527 -0.216030202956481 -1.96510388248448e-16)
(-0.690262938694197 -0.172714727370953 2.82659613869005e-16)
(-0.768541702433338 -0.0994700407758871 4.14012991541647e-20)
(-0.821075918143763 -0.00366338392746395 4.95012033953937e-16)
(-0.835952079755785 0.117284288107853 0)
(-0.789152627014206 0.238515889790917 -1.88046887858946e-19)
(-0.700097661678092 0.338191600875225 4.15402290542836e-16)
(-0.561677896635489 0.416361724422955 4.62926298137581e-16)
(-0.393219634825842 0.4335092948103 4.96936359506604e-16)
(-0.242588576625935 0.41364848364552 -5.2004209149042e-16)
(-0.123805327851816 0.366423960426213 5.4122747235872e-19)
(-0.0370964047607428 0.324968624966962 -2.64614032380608e-19)
(0.0441985901988503 0.283818304938616 6.35723237174251e-19)
(0.111512698019047 0.242206560732247 -5.23281290721634e-19)
(0.16511801031893 0.204199213134435 2.58907555853042e-19)
(0.21119954989635 0.169085920419719 2.44612241702434e-19)
(0.249755595477064 0.136135518114868 -2.42554732695658e-19)
(0.278732643196451 0.106210933118451 -1.74286129345511e-19)
(0.304058512083802 0.0793214050861241 -2.19806194305741e-16)
(0.320301582709439 0.05420858448131 4.1125970837037e-16)
(0.331143202965319 0.0340385711530632 -3.83264208692956e-16)
(0.340067356772798 0.0152284399381111 1.78245474588349e-19)
(0.345161280451747 -0.0011631592906743 0)
(0.340083184907704 -0.0145117691206194 2.96045574436732e-16)
(0.333316247745344 -0.0242034494547548 2.68588585695545e-16)
(0.322489513968404 -0.0319961916439148 0)
(0.307291648866124 -0.0368667535190238 0)
(0.288666323955457 -0.0395217272546231 9.11033497859083e-20)
(0.266854714172127 -0.0401358357438163 1.74018549548828e-16)
(0.24749915655037 -0.0397073108610704 3.10317551059721e-16)
(0.226678179530144 -0.0385708849331528 2.76732023413297e-16)
(0.207719840015819 -0.0368751817239429 2.46548297931894e-16)
(0.189352917243446 -0.0348710867723273 -4.40036166216391e-16)
(0.175246496989677 -0.0332399209021082 1.96112545730925e-16)
(0.160426547619896 -0.0313073744061161 -1.74592251887254e-16)
(0.148211701639135 -0.0295935711066555 2.93815886238079e-19)
(0.138037508650498 -0.0279049369274725 -1.38469495883818e-16)
(0.128640265621874 -0.0265139855773314 0)
(0.120510434763672 -0.0250229465087205 -5.45937760626569e-17)
(0.113649874476592 -0.0237712165255928 0)
(0.10771012666849 -0.0227078251138398 0)
(0.10170038092638 -0.0216153821649546 0)
(0.0971932224694488 -0.0207170903050363 0)
(0.09225643404875 -0.0198976705988637 -2.79502465330491e-17)