/*--------------------------------*- C++ -*----------------------------------*\
| =========                 |                                                 |
| \\      /  F ield         | OpenFOAM: The Open Source CFD Toolbox           |
|  \\    /   O peration     | Version:  3.0.1                                 |
|   \\  /    A nd           | Web:      www.OpenFOAM.org                      |
|    \\/     M anipulation  |                                                 |
\*---------------------------------------------------------------------------*/
FoamFile
{
    version     2.0;
    format      ascii;
    class       volVectorField;
    location    "7000";
    object      grad(k);
}
// * * * * * * * * * * * * * * * * * * * * * * * * * * * * * * * * * * * * * //

dimensions      [0 1 -2 0 0 0 0];

internalField   nonuniform List<vector> 
14000
(
(-8.91545061138861e-06 0.0651866481761744 0)
(-1.24784194411411e-05 0.0650561550268175 0)
(-2.3059113033757e-05 0.064786219417938 0)
(-2.42061811151885e-05 0.0645178378400906 0)
(-2.61675647125123e-05 0.0642359724368485 0)
(-2.97632368164847e-05 0.0639065500943803 0)
(-3.33272764859758e-05 0.0635276252711597 0)
(-3.71286053664175e-05 0.0630956772094902 2.66494003050249e-23)
(-4.14483961212222e-05 0.0626026719493222 -2.66493873013516e-23)
(-4.63091736642781e-05 0.0620405423508627 0)
(-5.17808677888559e-05 0.0614005283402515 0)
(-5.79640279294014e-05 0.0606724997727861 0)
(-6.49580106854635e-05 0.0598448649182309 0)
(-7.28751690419235e-05 0.0589043111627127 0)
(-8.18437807056043e-05 0.0578353547742594 0)
(-9.20189024303817e-05 0.0566199079429858 0)
(-0.000103569982037489 0.0552364468036143 0)
(-0.000116766315808515 0.0536590261119029 0)
(-0.000131749463124452 0.0518552476563794 0)
(-0.000149884167481321 0.0497849450144924 0)
(-0.000170284118621196 0.0473567050556384 -2.95963669958679e-23)
(-0.000200532306948968 0.0447004430633227 -4.90765060359333e-22)
(-0.00029030581942375 0.0425541479887888 1.98148715946457e-21)
(-0.000459854547091294 0.0410622906694314 0)
(-0.000721743950577844 0.0400580912271202 -4.15383638986829e-23)
(-0.00107435400456222 0.039440637124646 4.16007766192084e-23)
(-0.00151407971009794 0.0391221644766637 -1.13513726036221e-31)
(-0.00206863724700447 0.0393642511080487 2.93233365691701e-20)
(-0.00272580117886172 0.039954687348727 -3.53313758841052e-24)
(-0.00355595401308788 0.0412120604308184 4.80547896849517e-23)
(-0.0045522593865193 0.0429171230817411 0)
(-0.00574106756375787 0.0450069591265459 -1.35342893298673e-19)
(-0.00719527880932383 0.0477373826737512 -1.43894270578463e-19)
(-0.00897486582203538 0.0511911548670291 -1.5502923940072e-19)
(-0.0111377482040896 0.0553749072149087 -4.92679517968536e-31)
(-0.0136923510265835 0.060200493501412 -1.84276984435372e-19)
(-0.0170057540266982 0.0666371772169184 4.10696700366808e-19)
(-0.0208477929565968 0.0738821317622143 -1.06156753882868e-22)
(-0.0258576657873224 0.0833626740059611 5.21740811190028e-19)
(-0.03183490095376 0.0946872022475929 5.97377567859645e-19)
(-0.0401591650677773 0.110691119728165 -2.02754990937102e-22)
(-0.0498898165240481 0.129710027896032 2.11022638751402e-22)
(-0.0617010127403251 0.15306759641822 7.853385633976e-23)
(-0.0752641210839744 0.181383676809083 -8.19388783323224e-23)
(-0.0892885651972975 0.212924529226786 0)
(-0.10251582076679 0.246641128214258 -1.59630576485621e-18)
(-0.114241072487223 0.282552673702564 -3.07483773589853e-22)
(-0.122191347149613 0.317287965307575 3.18666584331395e-22)
(-0.125101693890372 0.348127394310734 7.27875764447858e-22)
(-0.121166934101096 0.370240222277602 -1.49295856342539e-21)
(-0.109817848704325 0.37804949436054 7.62692499529142e-22)
(-0.0937885936855364 0.373388279221438 1.14564566417982e-18)
(-0.0741832629444356 0.353474008985078 1.07451709480354e-18)
(-0.0549968685670626 0.324885175289182 5.121541410627e-22)
(-0.0385552703294829 0.296405052300591 -8.90097314127106e-19)
(-0.0258679998228077 0.274783389516727 0)
(-0.0158045513474287 0.259077907533527 1.93576261443943e-19)
(-0.0074660845118473 0.245440372286869 -3.18409331084461e-22)
(-0.00047286994015733 0.233608907947741 -1.08750698871129e-20)
(0.00543895979296711 0.222642063570834 -8.29521994970695e-20)
(0.0103855980456017 0.211311355756277 8.39178669463252e-23)
(0.0144148523783969 0.19935047833197 -8.32128718875057e-23)
(0.0175580032904498 0.186847854470975 0)
(0.0198392986941703 0.173319436733064 -2.59993007082994e-19)
(0.0213417048577129 0.159984309191836 8.75707200874927e-31)
(0.0221054303819226 0.145889200397804 4.3986398515417e-19)
(0.0221855740872312 0.131620558483458 8.44695977115696e-31)
(0.0217336451011167 0.117629669077095 -3.56623734731284e-19)
(0.0209235415142855 0.104974698061037 3.19130019819448e-19)
(0.0196971084201371 0.0922426663900339 -1.11324724909198e-23)
(0.0183319316784844 0.0811715213687858 1.04086736022628e-23)
(0.0168193478874897 0.0708182459951872 -1.01566536774205e-23)
(0.0154962678490488 0.0627563285687747 0)
(0.0142666602769184 0.055795643486184 -7.40283088564758e-24)
(0.0131461702039379 0.0503052874603358 7.2129240571658e-24)
(0.0120558660639962 0.0453928927734929 2.79920424467905e-19)
(0.0111179899552194 0.0415235909960461 1.32607407509261e-30)
(0.0101994132331377 0.0378377761235756 0)
(0.00949076959871039 0.0352907880612492 0)
(0.00885349183459953 0.0332132193785403 -2.04860115292231e-19)
(0.00826760448961146 0.0312986981162698 2.61283196965587e-25)
(0.00781789691175719 0.0301321245502651 -1.85570379068283e-19)
(0.00740255531532011 0.0291724895516152 0)
(0.0070571321287777 0.028581637723738 0)
(0.00675089345110913 0.0282057207074285 1.66464652625596e-23)
(0.00654617901669936 0.0284924791478724 8.71164253326204e-20)
(0.00629487609036524 0.028558455837605 1.49431320232349e-23)
(0.00610052682571335 0.0290806517041616 8.85326841924812e-20)
(0.00590696702647104 0.0298089987332983 -9.05572685133979e-20)
(0.00569334568015191 0.0305410265162006 0)
(0.00550799807225656 0.0318259303970971 -4.91474821877892e-31)
(0.00527538746884861 0.0329589690295121 0)
(0.00503796910003694 0.0344238720727412 9.13164204468442e-24)
(0.00476606240901446 0.0360551926629811 -9.02737596904907e-24)
(0.00446790665554212 0.0378725431763206 5.68240193103331e-20)
(0.00416904767580403 0.040069342442539 0)
(0.00385555383410039 0.0428347744556734 1.09853000210795e-23)
(0.00346286351826253 0.0458265757318996 -1.09163827778866e-23)
(0.00300282442954858 0.0492876871813036 0)
(0.00247749668992612 0.0530945574021552 2.33749821200036e-23)
(0.00187826483304799 0.0574328802329253 -5.35779460219168e-23)
(0.0011998178258532 0.0627670356152664 3.0222335103177e-23)
(0.0005793135664214 0.0684627698515842 6.42611380933429e-21)
(0.000291102496243712 0.0717784458303621 -4.9769300846082e-23)
(0.000189524869402156 0.0733451136868444 -6.57823921035635e-23)
(0.00015311272794129 0.0742041985520121 -3.30719459503166e-23)
(0.000134074388045149 0.0747731192465187 7.18609835569354e-23)
(0.000118727607386142 0.0751864509191509 -4.27351580347284e-25)
(0.000105210843398924 0.0754806773644343 -5.01493244399314e-47)
(9.28318662950726e-05 0.075669798527064 0)
(8.15417012472913e-05 0.0757673539913108 0)
(7.13717009767182e-05 0.075788159435261 0)
(6.23049903062953e-05 0.0757468645415593 0)
(5.42965764622201e-05 0.0756567652843668 0)
(4.7275272135974e-05 0.0755293324131685 0)
(4.11546246742651e-05 0.0753740941318971 0)
(3.58438454478131e-05 0.0751988443791721 0)
(3.12531731269799e-05 0.0750098879823327 0)
(2.72983162893307e-05 0.07481227465669 0)
(2.39014659740794e-05 0.0746100773247582 0)
(2.099305394088e-05 0.074406514294713 5.49437214304829e-23)
(1.85103105066282e-05 0.0742041918783898 -5.4945911033304e-23)
(1.64000721377176e-05 0.0740051484246412 0)
(1.46126473150739e-05 0.0738110836085231 0)
(1.31124035518869e-05 0.0736232559086644 0)
(1.18549125096936e-05 0.0734429231877929 -5.64394311599453e-23)
(1.08324165834486e-05 0.073270686012496 5.64390911926949e-23)
(9.97949083152596e-06 0.0731080227569654 0)
(9.36648849188237e-06 0.0729543465419308 0)
(8.80196479032576e-06 0.0728131890414489 2.86109142599949e-23)
(8.65398488219311e-06 0.0726797804164773 8.68079755740498e-26)
(8.1593865320632e-06 0.0725667225476599 -2.8697406610096e-23)
(8.93161118407693e-06 0.0724516982053595 -2.88688678416048e-23)
(7.70707836209854e-06 0.0723857005656822 5.78146597923516e-23)
(1.14440010026424e-05 0.0722703097384521 -4.34770988445765e-23)
(6.04722411710554e-06 0.0723227377024759 1.45305046522366e-23)
(2.10175217679318e-05 0.0721024705268441 0)
(-4.72113916159645e-07 0.0725921320587787 0)
(2.90636814297108e-05 0.0717020877053238 0)
(5.34477440355345e-05 0.0735862111366203 0)
(-1.02075452824011e-05 0.181020736073772 0)
(-1.66577990999571e-05 0.180892368430607 0)
(-1.58077505779405e-05 0.180913940284748 3.18769481513809e-23)
(-1.54914473390146e-05 0.180996525026113 -3.18769489580427e-23)
(-1.79679552375146e-05 0.181069306200645 0)
(-2.14066251579374e-05 0.181130411718829 0)
(-2.52846911790625e-05 0.181169769864394 0)
(-2.97719152896176e-05 0.181175393616079 -6.27018943922934e-23)
(-3.49112458957729e-05 0.181139671914624 6.27018639539791e-23)
(-4.07330694204474e-05 0.181055582442417 6.19779235588716e-23)
(-4.73172330895967e-05 0.180915591999071 -6.19779375432291e-23)
(-5.47685404698974e-05 0.180711597104493 0)
(-6.32191953398747e-05 0.180434341313104 -1.20791657316502e-22)
(-7.28401430463896e-05 0.180072684141353 2.40189460277363e-22)
(-8.38519901682938e-05 0.179612847316022 -1.60501355009295e-24)
(-9.65412770180351e-05 0.179037179402068 -1.84789958409135e-24)
(-0.000111312310453443 0.178323009734938 -2.29758449750974e-22)
(-0.000128690574759969 0.177438677114025 1.13814083079386e-22)
(-0.000149583221983814 0.176344367737928 0)
(-0.000176944177450358 0.174974207929635 0)
(-0.000199092511320879 0.173206914188224 1.00668497796651e-22)
(-0.000299523812903481 0.171305036050902 1.9952138900313e-22)
(-0.000752394263541569 0.169714015530507 -1.88562245098842e-21)
(-0.00160565069156053 0.16816449301714 1.90748201356892e-22)
(-0.00284900768014914 0.166491372251091 7.62702187489448e-20)
(-0.00444853550375469 0.164646670815802 1.82320834473158e-22)
(-0.00636534376952522 0.16260598228799 -1.49254426089987e-19)
(-0.00863208663973093 0.161017481532891 -2.80211454315137e-20)
(-0.0111611565831932 0.159821362004364 0)
(-0.0141188195010036 0.1594075449315 0)
(-0.0173361878161211 0.159051796474264 1.89600083375443e-22)
(-0.0207957065965164 0.158689774272126 1.28876733864716e-19)
(-0.0245418586167002 0.158465428640356 -4.77975692238463e-19)
(-0.0284996541554707 0.158210578771218 1.47914465193679e-19)
(-0.0325144641467429 0.157586876922982 -6.40472508292529e-19)
(-0.036533707547253 0.156717996225064 -4.7954924437949e-19)
(-0.0406872587923412 0.15577863127696 -1.74400522705939e-18)
(-0.0443992907697324 0.153982787261494 0)
(-0.0481072327977728 0.152087295021892 -4.97745702025689e-19)
(-0.051159919540941 0.149332831696852 9.42046306271301e-19)
(-0.0538840172403902 0.146031967970665 0)
(-0.0545989708018898 0.140089175981028 1.69086809158118e-18)
(-0.0541609697093026 0.133187412245575 0)
(-0.0514889375519339 0.123678223341844 1.92105277407516e-18)
(-0.047214782223626 0.113006783928205 -5.86600641356284e-23)
(-0.042316558913446 0.10290305110537 -6.65175496626926e-19)
(-0.0374325146410564 0.0942245758352349 2.34246235749606e-18)
(-0.0335365748836445 0.0891677585800232 -2.50540163576548e-18)
(-0.0318092422213201 0.0909888393202959 6.5872121169313e-22)
(-0.0331435291925663 0.10421816912313 -3.46007031086457e-22)
(-0.0378867442872381 0.134311124097277 3.0685309520903e-18)
(-0.0437293149931303 0.179908161561347 -1.09289780040009e-18)
(-0.0486821766760985 0.241882678734589 7.35809855559099e-19)
(-0.0508704167108088 0.317319005583644 -1.89357097037078e-18)
(-0.0484219663474455 0.39825120916773 8.48741361824009e-19)
(-0.041568873557666 0.47852373113304 3.88515461365034e-22)
(-0.0303074216600578 0.552015908245055 -1.84786870473306e-19)
(-0.0155728891947592 0.618116498125851 -4.09344977554117e-22)
(0.00157004778867941 0.674400395859866 5.25673747750482e-20)
(0.0201334448099564 0.718021020477174 7.95708836550752e-20)
(0.0390500927006593 0.748071727669541 -7.09148267145243e-19)
(0.0572614483382913 0.764827757480662 2.08025987629524e-22)
(0.0738526113615979 0.768215776257815 0)
(0.0883785737297966 0.759909062124507 2.48071892899509e-19)
(0.100065180297688 0.741904788004422 0)
(0.109022342999994 0.713760738557138 -4.1985919707103e-19)
(0.115000146020649 0.678200369200642 -2.43000082646317e-18)
(0.118176682961581 0.637360326920715 3.40256854828105e-19)
(0.118256510893748 0.592725596798476 -3.04736191952258e-19)
(0.115856846267411 0.543087758225939 2.09131984635463e-23)
(0.111180184174501 0.493790786713654 -1.74558110011986e-18)
(0.104835458791581 0.443791235741419 1.90567440678955e-22)
(0.0974854046390747 0.398606298116309 -1.85797196052107e-22)
(0.0892584681121116 0.353612498631573 0)
(0.0813207939579011 0.315248598932252 2.23726719030213e-18)
(0.0737853522534177 0.281326984508155 -2.67176375502288e-19)
(0.0671143016048926 0.253701050366397 -1.80925895488067e-18)
(0.0609185310153764 0.228659491882777 -3.05317247967083e-22)
(0.0558862080168654 0.209952781174233 1.93982463669185e-22)
(0.0516262827199176 0.1954570647239 1.95637069648764e-19)
(0.0478340657221609 0.182628336745303 -1.68776615126684e-22)
(0.0448541218601951 0.174095674510284 1.76869114930446e-19)
(0.0422877091424987 0.167602882394255 1.53958728646497e-22)
(0.0401637494225886 0.163415611916315 0)
(0.0383613901813578 0.160731083120114 -5.75168943427439e-19)
(0.0371346133484085 0.161826768540974 -8.29843813549512e-20)
(0.0357489887698879 0.162240095433511 -5.78306843176378e-19)
(0.0346131605751555 0.164756255682285 -8.44965171049243e-20)
(0.0334986494292379 0.168586159696332 8.64147311048333e-20)
(0.0322847943455921 0.172423973640232 -1.69460955617301e-22)
(0.0311196584627946 0.17869040510105 -6.3219837777519e-19)
(0.0297462740028387 0.184458694046934 0)
(0.0282682794638641 0.191336952194172 0)
(0.0265863119194792 0.198837726115465 7.01006841313227e-19)
(0.0246947942312766 0.206872205623743 -5.40159960070105e-20)
(0.022551103242592 0.215454226946271 0)
(0.020145809458117 0.223951602015421 0)
(0.0175146361713087 0.232505001324407 0)
(0.0146063570304828 0.241621911532694 0)
(0.0115101325941921 0.250780682435222 -2.25115266672883e-19)
(0.00823648969249443 0.260206628150137 -1.17114762343973e-19)
(0.00474198318106444 0.270675568262862 8.15522760005985e-17)
(0.00171157068375028 0.27984685220856 8.53621327710864e-17)
(0.000400362989469226 0.282567213654048 3.54008007468076e-22)
(4.20279742503379e-05 0.281059489774301 -3.54007057340695e-22)
(-4.67883123224471e-05 0.277691574649784 2.57564249892812e-23)
(-6.6539841663783e-05 0.273656746499 -3.49192314022406e-22)
(-7.18475613279114e-05 0.26947735875525 3.49590563705311e-22)
(-7.44612371144472e-05 0.265321029079062 0)
(-7.6084457610764e-05 0.261254095290161 -3.40668082040186e-22)
(-7.6743442540803e-05 0.257316432987415 3.40671029449256e-22)
(-7.63884374183473e-05 0.253536902759529 0)
(-7.51148739437279e-05 0.249936356485694 0)
(-7.31117012032731e-05 0.246527561657318 0)
(-7.05843509543311e-05 0.243316249761218 0)
(-6.77151506933959e-05 0.240302269916288 0)
(-6.46484249969982e-05 0.237481275557399 0)
(-6.1493705644945e-05 0.234845949453609 0)
(-5.83283537394406e-05 0.232387106011673 1.58388001623577e-22)
(-5.52070412370227e-05 0.230094614766135 -1.58390689615085e-22)
(-5.21652283875532e-05 0.227957781113104 -1.56330076385433e-22)
(-4.92251885806689e-05 0.225966021250799 3.11730327892376e-22)
(-4.63981812195636e-05 0.224108928705963 -3.09887159588225e-22)
(-4.36901577076192e-05 0.222376618158906 1.54505175083369e-22)
(-4.10965613592654e-05 0.220759773498007 -1.5287888836386e-22)
(-3.86193747389744e-05 0.219249656890295 1.52880474841532e-22)
(-3.62343965792908e-05 0.217838374004549 -1.51446784755421e-22)
(-3.39609822404161e-05 0.216518371845467 6.50048216636677e-25)
(-3.17205892446536e-05 0.215283497373471 3.00986876196124e-22)
(-2.96230089115159e-05 0.214126758102024 -1.50191446595156e-22)
(-2.73804649657437e-05 0.213045005087219 -7.45490259990421e-23)
(-2.54958759356814e-05 0.212029010182198 7.45493474973408e-23)
(-2.28100974492601e-05 0.21108453341451 0)
(-2.15527969005205e-05 0.21018829951203 0)
(-1.66746753450125e-05 0.209379236467226 0)
(-1.88059369818838e-05 0.208577308340735 0)
(-2.02355517725334e-06 0.207919715563842 0)
(-2.92481617041231e-05 0.207249765449087 0)
(4.33727074771438e-05 0.206513680778114 0)
(8.3922103286101e-05 0.206907413262626 0)
(-9.34908848465402e-06 0.263554431110618 3.51952013689965e-23)
(-2.05914796705571e-05 0.263579296411923 -3.51952063034604e-23)
(-1.53002754657202e-05 0.263622871717407 0)
(-1.25300463841427e-05 0.263719659269272 0)
(-1.61376689107687e-05 0.263865813728769 0)
(-2.23422116172683e-05 0.26404702989365 2.80768086188981e-22)
(-3.02096834221683e-05 0.264250524350871 -2.80768111796314e-22)
(-3.98220551726358e-05 0.264466748248233 0)
(-5.10855248707226e-05 0.264688689379999 0)
(-6.40161316853706e-05 0.264911052025286 0)
(-7.87673982978635e-05 0.265129732311181 0)
(-9.55737384771958e-05 0.265341459724788 5.54971469213746e-22)
(-0.000114769338381527 0.265543491021727 -5.5497096643847e-22)
(-0.000136815260630068 0.265733274682641 5.50377302520944e-22)
(-0.000162342899178487 0.265908178135822 -5.50371982915002e-22)
(-0.000192192533941461 0.266064939877758 0)
(-0.000227611844318182 0.26619962467678 0)
(-0.000270192367115552 0.266305661945648 5.34811647465539e-22)
(-0.000322698515391865 0.266376158211488 -5.34810521328553e-22)
(-0.000392780002812098 0.266397456677737 0)
(-0.000454656126362662 0.266332436925303 5.92250337197576e-25)
(-0.000627490056792981 0.266372528720958 0)
(-0.00135639443403532 0.266747910685121 0)
(-0.00274534128191536 0.267321411849661 0)
(-0.00479631104024587 0.267802763132025 -2.45332017028978e-19)
(-0.0074734703970771 0.267960483762002 1.70828237958502e-19)
(-0.0107026487752629 0.267721262851025 -1.98667381943854e-19)
(-0.0145014251326483 0.267271584081781 3.41744695623216e-19)
(-0.0187453560913178 0.266861256074671 -9.50230454167299e-22)
(-0.0236963815175331 0.266881175136695 0)
(-0.029160561620011 0.267198129781449 -9.54741318156789e-22)
(-0.0351093114607834 0.267780433896628 9.64954652482101e-22)
(-0.0416238017417494 0.268790908120355 -8.10763633009685e-19)
(-0.0486809795652216 0.270311308711119 0)
(-0.0561524747755504 0.272203978284414 6.12074625799763e-19)
(-0.0640023878958525 0.274623352764824 -8.41735897102328e-19)
(-0.0725529334635002 0.277824455579755 -1.71229744041396e-18)
(-0.0811903751003917 0.2815653494163 1.08688304323959e-21)
(-0.0905786796626805 0.28629127926598 3.17237712266545e-18)
(-0.100086864062163 0.291976269849604 -1.4426575688363e-18)
(-0.110553572439931 0.299173019162035 6.0816944149713e-22)
(-0.119870233640181 0.30671351920166 -5.19066872442954e-18)
(-0.128705580375679 0.315119309603295 0)
(-0.135691732988855 0.323840145578964 -1.83212010145224e-18)
(-0.140221723166463 0.3327401068151 -4.66137025585312e-23)
(-0.142341030233262 0.342398324026246 2.08638647309348e-18)
(-0.142229912851968 0.353444457423756 2.27454825758163e-18)
(-0.139704419335139 0.366562444578197 2.38816052535061e-18)
(-0.135201423587286 0.382934580538028 9.33848842252179e-22)
(-0.128950839693242 0.405048293124253 1.04227253038107e-21)
(-0.122093157235998 0.437182660917508 -2.92811796259578e-18)
(-0.114891253377199 0.482355071528344 0)
(-0.106311478233281 0.544050396351955 1.65597999877308e-18)
(-0.0965348013198034 0.625067452646284 5.49992115862456e-18)
(-0.0842526335895751 0.724489921375368 1.33256361829324e-22)
(-0.069005564221776 0.837231316512589 2.30811838039223e-18)
(-0.0489411432700173 0.953911933337756 0)
(-0.0238408356606631 1.06686137815006 7.006690951944e-19)
(0.00523721338823289 1.16933608755456 -3.98663615238093e-20)
(0.037082491709822 1.25512779109918 0)
(0.0701625760828523 1.32058937644485 6.76047436701272e-19)
(0.102738493963529 1.36487562898879 0)
(0.1332982519536 1.38758598080852 -3.42934320437419e-18)
(0.161079593171804 1.39091114660204 -3.41131842824056e-18)
(0.184496308457095 1.37713540592591 2.16446598250776e-21)
(0.203978372567756 1.3470024944839 -6.51759497918353e-18)
(0.218861364735035 1.30364003420963 2.32061714901312e-18)
(0.229386004635029 1.25088989721912 -8.95728446473295e-23)
(0.234425760256299 1.18949938691802 -1.77855916449841e-21)
(0.235647353898649 1.1193394262706 -1.53117474601222e-21)
(0.232059264435844 1.04520648458934 1.66712837882434e-18)
(0.225288539989835 0.967505933920715 0)
(0.214888756946152 0.891722406921806 0)
(0.202585866960665 0.814600498778724 0)
(0.189066473972422 0.74359876760196 -2.13355746184683e-18)
(0.175341205576998 0.677828302346673 6.08710123574277e-18)
(0.161920513602096 0.620268559944283 7.27686902532435e-18)
(0.149216700771583 0.567098214863136 -5.05683974267185e-18)
(0.1380395996188 0.524293309372538 0)
(0.127761947706864 0.488632514569646 -4.34982747474741e-18)
(0.118716300317368 0.457364662599568 -4.06840246652975e-18)
(0.110851610635615 0.433516466448202 -3.86049572599585e-18)
(0.103865242497284 0.414280520382889 0)
(0.0976634386238381 0.399406222170719 -9.6836846359962e-22)
(0.0922768939365405 0.387798649079435 5.49558260955567e-19)
(0.0874800012481479 0.381814178778424 0)
(0.082835355381145 0.376195521007279 5.52725415674431e-19)
(0.0786090488388525 0.3737202056091 -9.49515373139729e-22)
(0.0743428300315263 0.37327252195034 -2.00140431910969e-21)
(0.070232748971609 0.373560739943066 1.96914207148388e-21)
(0.0659789124722905 0.376628389572451 6.0335695540511e-19)
(0.0616682037235472 0.379738918688849 -1.76817700570693e-18)
(0.0572499998049341 0.384024956928272 0)
(0.0526072779197593 0.389139511194849 -6.6905999561052e-19)
(0.0477740357751341 0.394905379963281 2.42243628260357e-21)
(0.042681518468501 0.401365771308837 -9.66405821830275e-19)
(0.0373955499086622 0.408085854842929 0)
(0.0319695287810539 0.414933594941156 1.01393732095016e-18)
(0.0262668791100303 0.422277554740288 2.81928153025814e-21)
(0.0204768652109265 0.429781787537121 2.11710793477874e-19)
(0.0146382862296695 0.437477403225736 3.87120943299431e-19)
(0.00859535987076472 0.445983439143574 -7.79799118854716e-17)
(0.00329801923768476 0.453556219617107 -8.09334715963231e-17)
(0.000756214375735726 0.456038926669924 -1.8417281675822e-20)
(-0.000117416311237719 0.453604777600636 0)
(-0.000405368289738256 0.448197576795721 0)
(-0.000494593901848214 0.441306306118734 1.60217236630789e-21)
(-0.000520927645816555 0.433765072178143 -1.6021289556468e-21)
(-0.000526356651413089 0.425991764191027 -1.81313897022872e-16)
(-0.000522226094617647 0.418205567635747 -1.79119855249766e-16)
(-0.000511647872866881 0.410538288549761 -3.0709602601559e-21)
(-0.000496076850704336 0.403078020232674 1.52612004132939e-21)
(-0.000476774684349259 0.395885520695855 0)
(-0.000454959225077634 0.389001343665672 -1.47395019625785e-21)
(-0.000431702278932405 0.382450400734467 1.57678145038212e-23)
(-0.000407867904028727 0.376245254885544 2.90147325506234e-21)
(-0.000384103919947827 0.37038897993553 -1.44334046826329e-21)
(-0.000360871565503573 0.364877711751544 -1.41609408763736e-21)
(-0.00033847975734387 0.359702380649769 1.41610128080202e-21)
(-0.000317121177550405 0.354850623080522 0)
(-0.000296903138535609 0.350307615725809 0)
(-0.000277869006027058 0.346057277664413 0)
(-0.000260018065449294 0.342082877210571 1.51219105096983e-16)
(-0.000243319429945338 0.338367465953551 1.50159573172455e-16)
(-0.000227718467843396 0.334894473838592 0)
(-0.000213152438237576 0.331647605534462 0)
(-0.000199538175906151 0.328611553930667 0)
(-0.000186807982135578 0.325771304964944 -6.61282593505873e-22)
(-0.000174848989809219 0.323113666960548 6.6128334353915e-22)
(-0.000163620899158949 0.320624406008374 -6.55109013868772e-22)
(-0.000152926066373316 0.318294192038576 6.55099044660836e-22)
(-0.000142847930955757 0.316106232896228 0)
(-0.000132844154757114 0.314061976122114 0)
(-0.000123645942199365 0.312127957340063 3.2250620007344e-22)
(-0.000112622983945013 0.310344332348887 -3.22511525049031e-22)
(-0.000106383110731432 0.308607341247485 1.60254485356228e-22)
(-8.12251847131724e-05 0.307089916005831 -1.60253778906204e-22)
(-0.00010855352845389 0.305468045321822 7.96936319268869e-23)
(1.73373949865284e-06 0.304325437141637 -3.98448033652131e-23)
(8.26480661309014e-05 0.302195971992796 -3.98491811508292e-23)
(-3.15620050168459e-06 0.157700711895334 0)
(-1.08835538885968e-05 0.157810631565711 -1.0572065984698e-22)
(-4.3786338373551e-06 0.157894565857662 1.05720648509695e-22)
(4.19266612516321e-06 0.157983627281595 0)
(8.66363658874217e-06 0.158138217061784 0)
(1.00404802463709e-05 0.158372280195575 0)
(9.21488022671652e-06 0.158686169984852 4.23124215459399e-22)
(6.48394826933577e-06 0.159081488242829 -4.23124300196512e-22)
(2.14521871057409e-06 0.159560091139584 0)
(-3.59486696553882e-06 0.160124863120118 0)
(-1.06471302899608e-05 0.160780738961512 0)
(-1.89988403422459e-05 0.161535027928447 0)
(-2.87133772617889e-05 0.16239780530688 -8.45318686420988e-22)
(-3.99382920955489e-05 0.163382476726649 6.95886627401998e-25)
(-5.29312721912683e-05 0.164506550451787 1.68830972598798e-21)
(-6.80575608042685e-05 0.165792638376434 -1.68623105053162e-21)
(-8.59495671950067e-05 0.167270172283565 8.42514873890122e-22)
(-0.00010731960795995 0.168977883540931 0)
(-0.000133553638568792 0.170967500006614 0)
(-0.000169889340506138 0.173315474205052 0)
(-0.000188943711010499 0.176139643457114 0)
(-0.000259974771117797 0.179470728891691 1.65643501865396e-21)
(-0.000715680370881634 0.183153740736533 -1.65658488189498e-21)
(-0.00168763654129574 0.187256762372927 1.17560536083014e-19)
(-0.00321935521348397 0.191605239317666 1.64649097470215e-19)
(-0.0053003618513101 0.195860161574975 7.29970520807851e-20)
(-0.00789634734532861 0.199818011504783 3.26201059070079e-19)
(-0.0109839376108705 0.202814105449036 -3.23531377004146e-19)
(-0.01442237919214 0.205052791011922 9.5589796978683e-19)
(-0.0183730330074487 0.206601722770543 9.5908675965147e-19)
(-0.0227248045369119 0.20798370855945 -9.6528205498096e-19)
(-0.027463636716523 0.20933295390243 1.94749518533392e-18)
(-0.0326178646301439 0.210649016592652 1.33374684628699e-18)
(-0.0381743535303639 0.21212210818148 -1.70906033816252e-21)
(-0.0440696112157844 0.213908418167117 7.08835261427143e-24)
(-0.0502778977344663 0.21614223874857 1.39881790585318e-18)
(-0.0569538270042461 0.218627211218679 -1.34552764995399e-18)
(-0.063814409375553 0.221956289402552 0)
(-0.0711375741668454 0.225615265352263 -3.02733713462609e-18)
(-0.0785901449455975 0.230160165159752 4.58341222198143e-18)
(-0.0864478283982858 0.23489480856156 1.02479346494074e-21)
(-0.0936765330963005 0.240628630989266 3.41205323940108e-18)
(-0.100220850754855 0.246255614157956 -1.11322959970533e-21)
(-0.105158607888955 0.251743721564935 -5.37412555981113e-18)
(-0.107830245014366 0.256545568201158 3.78111362255343e-22)
(-0.107833155894121 0.260020539777196 5.78158664458378e-18)
(-0.10502368110238 0.261694158500733 -4.29968735023509e-18)
(-0.0993950743873384 0.261728519054459 -6.81512070199407e-22)
(-0.0912070488572507 0.259773697552926 -6.39529779847555e-18)
(-0.0805591120520869 0.255755789718325 0)
(-0.0688530805869535 0.251900288981152 1.63610090503793e-21)
(-0.0575846810996748 0.251879041373165 -3.68210338382226e-18)
(-0.047530959265041 0.261610491012136 -3.18264273479903e-18)
(-0.0392727400330109 0.286194865058589 -3.52167255405836e-18)
(-0.0324286256009586 0.331566808323591 4.93155717026333e-18)
(-0.0259869088346705 0.398567657421255 5.9689700518827e-19)
(-0.0178902384080788 0.485301884230588 3.1633157086403e-21)
(-0.00638435197209431 0.585038730922701 2.11536430974626e-19)
(0.00909672472471136 0.68955571844745 7.22725158085813e-21)
(0.0284580854148936 0.791421543748885 -3.74047739407642e-21)
(0.0510277323224998 0.884343530225578 -4.13774973211529e-21)
(0.0755717850991497 0.964199663477421 4.1029458429789e-21)
(0.100812618048695 1.02860247958504 -1.54013749184281e-18)
(0.125899203940397 1.0775653065085 3.25492156304594e-18)
(0.14910543209067 1.11083581563439 -9.73808724419357e-18)
(0.170705462714781 1.13020737148637 6.21657769332693e-18)
(0.189812432477395 1.13664384182505 -4.01148466017062e-21)
(0.206249733572838 1.13296858119392 0)
(0.218453363189445 1.11865786343335 -8.7709560283069e-18)
(0.228162650214083 1.09535579911669 -8.34160566603034e-18)
(0.23316718609408 1.06274157683391 0)
(0.235138914322131 1.02292688881686 0)
(0.231911752467486 0.976094552348736 -2.64217138733708e-21)
(0.226208868254218 0.923411244404745 -6.36487695220983e-18)
(0.217183567217437 0.867654967836635 -1.17468292992572e-17)
(0.206590493467082 0.811428811070702 -5.80814125760325e-18)
(0.194426733779514 0.756910201622719 -5.300479287429e-18)
(0.182422486671048 0.704310183824556 1.40001227666483e-17)
(0.17055399205664 0.657558460566074 -8.51076563543738e-18)
(0.158724749584312 0.615877083732604 4.15284046064227e-18)
(0.148194651529621 0.578711348582111 -3.57158869487103e-18)
(0.138156489697513 0.547046237762165 3.68580003773095e-18)
(0.128965889433448 0.520290305768879 0)
(0.120390116344883 0.497526874521961 3.22930934485697e-18)
(0.112748004287387 0.478274137122939 0)
(0.105177858606435 0.46286209439428 0)
(0.0983149728539944 0.449814155362385 0)
(0.091766767487818 0.439109880793387 0)
(0.085233854611504 0.430356017635393 2.93020898058033e-18)
(0.0791943195939225 0.423209476417346 2.92017229533874e-18)
(0.0728781845280793 0.417551414884808 -1.04336093634082e-22)
(0.0668932578648168 0.413130983062151 1.69165178690897e-18)
(0.060911294204215 0.409455722355175 0)
(0.0549126760158814 0.406645670550481 4.80159273587964e-21)
(0.0489381909030719 0.404522142091303 -4.75310238895019e-21)
(0.0429121702833014 0.403009800601208 9.19816543407378e-19)
(0.0369329497939231 0.401970093602605 5.05562204887326e-21)
(0.0310525102079535 0.401271486003484 5.94704847803984e-19)
(0.0251101629120598 0.400849977315483 -5.25615738832324e-21)
(0.0193006147415658 0.400740795867656 5.23643730183082e-21)