/*--------------------------------*- C++ -*----------------------------------*\
| =========                 |                                                 |
| \\      /  F ield         | OpenFOAM: The Open Source CFD Toolbox           |
|  \\    /   O peration     | Version:  3.0.1                                 |
|   \\  /    A nd           | Web:      www.OpenFOAM.org                      |
|    \\/     M anipulation  |                                                 |
\*---------------------------------------------------------------------------*/
FoamFile
{
    version     2.0;
    format      ascii;
    class       volTensorField;
    location    "7000";
    object      grad(U);
}
// * * * * * * * * * * * * * * * * * * * * * * * * * * * * * * * * * * * * * //

dimensions      [0 0 -1 0 0 0 0];

internalField   nonuniform List<tensor> 
14000
(
(-0.0016726719853585 6.3491123682498e-05 0 26.366319626285 0.000929308107889261 0 0 0 0)
(-0.00231176114510576 2.66590436742862e-05 0 26.3514895299823 0.00377389075182639 0 0 0 0)
(-0.00447846546006868 -2.12985662928795e-05 0 26.2791385955725 0.00457346256659363 -2.08158684786154e-20 0 0 0)
(-0.00466615783700118 -8.00321958306934e-06 0 26.1902726811268 0.00471231191937311 2.08393261257151e-20 0 0 0)
(-0.00507443729269701 5.5255490144418e-06 0 26.0928696194512 0.00530484306921475 0 0 0 0)
(-0.00579980506561732 2.80777834406719e-06 0 25.9800518029172 0.00598608065159623 0 0 0 0)
(-0.00651521641402299 1.38011313872141e-06 -3.49581620980628e-21 25.8511727611729 0.00666802294944886 -2.26708308322327e-23 0 0 0)
(-0.00729096431023172 1.85658400582589e-06 3.49993984173409e-21 25.7056313426863 0.00743714860048155 -6.90964842893954e-21 9.41853120246936e-21 7.26427954682582e-25 4.13569438282572e-44)
(-0.00818583687474073 1.78717044450466e-06 3.49581615201153e-21 25.5413031728766 0.00831496253719438 6.92293090776853e-21 -9.4185266066623e-21 -7.26427600219381e-25 -4.13569236479838e-44)
(-0.00920914342896439 1.4992650015617e-06 -3.49993989952891e-21 25.3556825726973 0.00931406332139009 -4.3171982931406e-20 0 0 0)
(-0.0103837069189396 1.2276015150496e-06 0 25.1458355763019 0.0104599077058774 4.32708266628449e-20 0 0 0)
(-0.0117410211799553 8.79083202787099e-07 0 24.9081805372074 0.0117813078573503 0 0 0 0)
(-0.0133162269198244 4.43743398759777e-07 0 24.6384059918448 0.0133119878107166 8.98564111125049e-20 0 0 0)
(-0.0151529882591086 -4.41850651805918e-08 0 24.3313333889188 0.015094305733477 -1.81762837040603e-19 0 0 0)
(-0.0173065083203526 -5.55377765950401e-07 0 23.9806762114296 0.0171828356600605 -1.47611346568007e-21 0 0 0)
(-0.0198499105734729 -9.78729239585408e-07 0 23.5787661666574 0.0196485758030681 -1.73222553892152e-21 0 0 0)
(-0.0228770617711229 -1.19428546526862e-06 0 23.1160311836577 0.022588878416404 1.94792802678686e-19 0 0 0)
(-0.0265343540733292 -5.91209709579345e-07 0 22.5805195249837 0.0261414414829036 -9.91898924032525e-20 0 0 0)
(-0.0309779259366989 1.80952850260902e-06 0 21.9561849670929 0.0305058237429061 0 0 0 0)
(-0.0367483197117361 1.28903628431846e-05 9.10659974645852e-21 21.2235020208425 0.0360984631095884 1.68735800815628e-22 0 0 0)
(-0.0441719228696843 0.000247566721514927 1.4026892844572e-19 20.3448144827508 0.0435438981585778 1.64831956138004e-20 -1.34913779693053e-20 -6.76386126715467e-24 -2.9967669084401e-39)
(-0.06048948999876 0.00103140780870097 -3.23968501930123e-19 19.287167994563 0.0614329720936578 1.38082193768743e-18 -2.11025509955344e-19 -7.08090875604757e-22 -1.31517379175962e-38)
(-0.106786082949749 0.00195524153924079 -1.38823863617251e-19 18.2373803294156 0.107328338491683 -3.7407111523074e-19 8.49183233565609e-19 4.99504096580015e-21 -1.72708802304281e-38)
(-0.184823760195804 0.00195352717846297 -2.41266831660573e-18 17.3826109483566 0.187707992741361 -3.17447911558375e-19 0 0 0)
(-0.297244904544798 -0.000177223133616327 -1.62056856576071e-18 16.7704260441954 0.302928648442449 -7.50370907144667e-17 -2.17929750807015e-20 -4.94850327256016e-22 2.25448061542875e-37)
(-0.445144308941861 -0.00589868305388714 9.73203933467548e-18 16.4155954098749 0.453675856851544 -4.0862220140856e-17 2.18257196634825e-20 4.95593854353396e-22 -2.25786803852572e-37)
(-0.63164512930119 -0.0172630164491251 -9.54098847219122e-18 16.3030072709416 0.644083005295045 1.63563076272113e-16 0 0 0)
(-0.870706175021341 -0.037699921847787 -5.68239799870821e-18 16.4889569952797 0.884661110297976 -3.69461732248796e-18 1.22786597406338e-17 6.58341875127562e-19 -2.3993513467989e-36)
(-1.16264340068925 -0.070656775171987 5.99967960065782e-18 16.9052539513314 1.18093245055295 1.63015326790755e-19 -1.13615601376796e-21 -5.08386599655022e-22 -2.43305858841304e-37)
(-1.53534767632932 -0.123268948366745 3.02842156491884e-20 17.5964232345322 1.55317733498359 -3.42174216900095e-19 2.41817433890036e-20 2.00737131683574e-21 -9.58312581902013e-40)
(-1.99540769265605 -0.202500288353008 8.02142166647951e-20 18.5596179394846 2.01398257748631 -3.26891815292179e-19 0 0 0)
(-2.55649738681034 -0.317295880450329 6.74781047445594e-17 19.7306361135513 2.5733020797614 -3.31130852394651e-16 -5.93361285153999e-17 -7.73780064833159e-18 9.96472431142177e-34)
(-3.24567791810075 -0.481346883590144 -5.45198341250784e-17 21.1519724938515 3.2569879370011 3.46294280495793e-16 -6.37639614010189e-17 -9.81701402834704e-18 -1.04353942391179e-33)
(-4.08528383164689 -0.710308597259543 5.52913668424326e-17 22.8473720906054 4.08832730482211 -3.16671974158135e-16 -6.9199012114193e-17 -1.2380679686519e-17 9.59019520004916e-34)
(-5.09404202054499 -1.02024794831721 -1.10727985191924e-16 24.8178574140744 5.08313159678045 6.28123539680967e-16 0 0 0)
(-6.27103334373875 -1.42559996852303 -1.31506079614783e-16 26.9848539577701 6.24562464278953 3.0380166966777e-16 -8.26134356993211e-17 -1.9118521627156e-17 -9.35503119816398e-34)
(-7.70968922853721 -1.9680931699835 -1.16625061439049e-16 29.559806084702 7.6531594572162 4.94192599757001e-16 1.82208312828307e-16 4.71696155877935e-17 3.04391366036233e-33)
(-9.34237049330246 -2.6412028623454 -1.3955816486434e-16 32.3874529907263 9.26173295425802 5.1034829094113e-16 -2.8886939494087e-20 -8.50562594453253e-21 -1.08463089934254e-37)
(-11.312923918217 -3.51264445066054 -2.41038366310416e-17 35.6827589823839 11.1813561570689 -2.65313271557664e-17 2.23336952159275e-16 6.99778896926216e-17 -1.6094209881963e-34)
(-13.5547339653241 -4.56962209196003 2.71172300515348e-17 39.3974372413565 13.3799703669011 4.7235956502938e-18 2.48580743557666e-16 8.44167533370365e-17 2.54350280409601e-35)
(-16.3322741822836 -5.93350616988885 -1.0130845835682e-19 43.992443457812 16.0679434924211 4.1977115319816e-20 -4.17892450731963e-20 -1.51503261898758e-20 -1.52561018892716e-42)
(-19.3677561946901 -7.45056076473515 3.95879653583105e-17 49.2825699441661 19.0286073172354 -1.00239683598306e-16 4.34932660647085e-20 1.57681041327552e-20 1.58781929996143e-42)
(-22.7524796876018 -9.15205464707476 -1.64838149299695e-21 55.3299767474238 22.3050666630348 9.1465444308866e-21 1.34991100332118e-20 5.26223964213144e-21 8.71164952864248e-44)
(-26.3100947875765 -10.8671578866032 -1.05036013953784e-16 62.3147272455256 25.7563025570384 2.4795083040838e-16 -1.40843960319567e-20 -5.4903965485499e-21 -9.08936379888272e-44)
(-29.7519101186244 -12.3799418709098 -1.55276931731743e-19 69.9715046736744 29.0990101280384 -3.6587474240319e-20 0 0 0)
(-32.8305583583211 -13.5090942396514 3.99206818349468e-18 78.1389409830891 32.0964295945373 -9.48348581165579e-18 -5.05571161788962e-16 -2.07664834902169e-16 6.13534769466765e-35)
(-35.3732790976488 -14.1276285849329 -5.0885638430002e-16 86.821341616058 34.5724597094957 1.08376993832046e-15 -4.1443467193955e-20 -1.52042048660922e-20 1.06240291299726e-36)
(-36.965806406028 -14.0341407960128 1.12172065102765e-15 95.5951133506311 36.1382694356343 -2.89286720064321e-15 4.29507158833084e-20 1.57571633758093e-20 -1.10104121974622e-36)
(-37.3744680283045 -13.2099169307931 6.87246695174257e-17 104.01091078462 36.5503447365582 -4.57668068736579e-19 9.46685198311062e-20 3.00072195317274e-20 -8.43164411214765e-40)
(-36.2201033254556 -11.6265806034725 5.23093264571784e-19 111.288545294882 35.4503803202091 -1.59953615203829e-18 -1.9528852917545e-19 -5.87213715934112e-20 1.63061937193202e-39)
(-33.405752190018 -9.49409777906426 -7.14075880395505e-16 116.350131893957 32.73468234847 2.70349660798276e-15 1.003374813784e-19 2.85435375197066e-20 -7.82166925653976e-40)
(-29.320135417233 -7.18432394196558 7.2392326843216e-17 118.963122849225 28.7558053956292 -4.56844125936561e-17 3.65050116980462e-16 8.82260382431422e-17 -1.30577225808002e-34)
(-24.1164842438752 -4.92414740149491 -3.35809828794456e-16 118.24102457106 23.6895709489637 1.68709795111303e-15 3.59520403272635e-16 7.2016042464195e-17 5.13158899036002e-33)
(-18.6512783816164 -3.07098760184963 -5.10466494490404e-17 114.451377608588 18.3383538267392 -8.805282947975e-17 8.60867415309026e-20 1.17345926359905e-20 2.62241131185182e-36)
(-13.5143389024088 -1.72440856613462 -3.1695102635284e-16 108.719328431249 13.3004829400281 2.04610524031974e-15 -3.26473698152391e-16 -3.99304627556933e-17 -6.13573645449662e-33)
(-9.17181174667318 -0.867196341648598 1.74608787340528e-17 102.51160645122 9.01701535779068 1.75098392116932e-19 0 0 0)
(-5.52138166155619 -0.3618352712886 2.50251075527833e-18 96.4520175692913 5.40976654441344 -4.79157298231472e-17 7.20310265955728e-17 4.03701000465104e-18 -3.50597576185846e-35)
(-2.46123090725 -0.109944323933557 -1.85889866298765e-17 90.2086188845862 2.37666736948628 -1.17286304062441e-18 -6.83285815946348e-20 -2.70339760663821e-21 -7.18714077046339e-37)
(0.0443143301072904 -0.0391152776093487 -8.46725239729754e-18 83.9575953958739 -0.114820854862528 4.01121056485937e-17 -3.9089562706892e-18 5.42923573282711e-21 -1.84998853725674e-36)
(2.06374377600144 -0.0904003670662111 1.88345571104954e-17 77.8078367061675 -2.1277329701736 3.04945749710079e-17 -2.89927547097105e-17 7.93390049461763e-19 -1.16582310718384e-35)
(3.64772598560921 -0.218541126905975 5.40782006815727e-18 71.6491793127162 -3.71242531334965 -6.32322053051997e-17 2.36265917356186e-20 -1.55200258511535e-21 3.45300348587566e-37)
(4.8297707999361 -0.387085684739067 -1.68445497805796e-17 65.4661969392882 -4.90001200622391 7.50845077703258e-19 -2.34281045045238e-20 1.53896419603162e-21 -3.42399476940307e-37)
(5.65185430614404 -0.567683457296368 -3.16646844765933e-17 59.3828013913634 -5.73247471959318 1.18083895744032e-18 0 0 0)
(6.14159490544096 -0.738121556417295 7.54155974430199e-17 53.2160721248352 -6.23201618321109 1.21379898216379e-16 -7.98309488214648e-17 9.34984788638173e-18 -1.85445621685231e-34)
(6.33463543731674 -0.879366155898188 3.17430075956905e-16 47.2631555473583 -6.44168528237557 1.65106534295752e-15 0 0 0)
(6.28138289302566 -0.984980356753588 -3.88372014853299e-17 41.378775188251 -6.39899156655262 -2.40035109783765e-16 1.24760010969066e-16 -1.92948009231342e-17 -7.24294933489567e-34)
(5.97425753566791 -1.03977571356155 -1.53446153239467e-16 35.4917755786048 -6.11000545073112 -2.32577155209574e-16 0 0 0)
(5.44559405194287 -1.03728674891626 3.83354119011419e-17 29.6180886112368 -5.59272292068407 2.33457843098239e-16 -8.97918159483032e-17 1.69560936155952e-17 -7.07309558202364e-34)
(4.79699264522108 -0.987034543626399 -4.12587412369084e-17 24.2827540597452 -4.96149472472945 -2.32133052165542e-16 7.38195936974912e-17 -1.50838913075544e-17 -7.05128108742332e-34)
(4.01672642579016 -0.886151304092045 -3.61863020148882e-16 19.0803057405912 -4.18405162846445 -1.20002577581534e-15 -5.20319205663087e-21 1.31320742272144e-21 -4.71548930805641e-38)
(3.17216583774384 -0.746061245853972 -5.5609821882259e-16 14.34351196114 -3.35618647261815 -2.45537266375416e-15 3.58422739842269e-21 -1.35958454379094e-21 -3.16383676450622e-36)
(2.30941463044726 -0.576416627326378 -1.99285942068656e-16 10.0201108313044 -2.48927114928609 -1.02996484277885e-15 -3.49744380225427e-21 1.32666541704772e-21 3.08723193406645e-36)
(1.53097051767515 -0.408308723656701 4.52474409519473e-17 6.4798289402286 -1.71987886018904 -2.16588689640805e-18 0 0 0)
(0.83776709334256 -0.24292890701773 -8.37305662750249e-20 3.52638519508193 -1.01402110037631 -4.03219845429412e-19 3.2571900024074e-21 -3.18842421523511e-22 -8.44913726408972e-42)
(0.230131720379768 -0.092340017888316 6.05676828526796e-16 1.08340567613639 -0.407784281075407 2.04632686189079e-15 -3.17363242387093e-21 3.1066307040874e-22 8.23238925430587e-42)
(-0.248679098148416 0.0338078504050321 -5.70784027374069e-17 -0.783237365689739 0.0844820718878412 -4.81172004518793e-16 -4.84045848977278e-18 5.23793356088492e-19 -2.9500914554497e-33)
(-0.605852961707992 0.128566737158468 -1.90793259581833e-16 -2.14608894262861 0.446657513244977 -4.56140687586957e-16 0 0 0)
(-0.879158361452871 0.205080108883225 -6.63115096773626e-17 -3.16451052270105 0.733146760539435 1.45752619535096e-18 0 0 0)
(-1.09526138270071 0.262412837804589 -5.47008373062771e-17 -4.00267113719118 0.957055011417213 3.02755293751149e-18 0 0 0)
(-1.18006593100601 0.28338400043525 8.48915821976434e-17 -4.37898856178038 1.05090520045447 3.25787023799565e-16 2.70027576253497e-17 -6.4807282945697e-18 -2.01174067957989e-33)
(-1.25077342267387 0.301699161418806 6.1023193796225e-18 -4.6943154297505 1.13345145074872 -8.75902227548569e-19 -3.35716076035302e-22 7.47734746040024e-23 3.88289328632061e-37)
(-1.26414190489414 0.29987334396039 6.47790248477324e-17 -4.84531817532546 1.15249061605004 2.55709113943729e-16 2.98535954678814e-17 -7.10028619286654e-18 -1.5716088835925e-33)
(-1.23207643707288 0.286786634864894 4.70656321844876e-17 -4.84109207530833 1.1313822194393 -1.57180978814002e-18 0 0 0)
(-1.16782087120444 0.263790078826869 1.74578147758911e-20 -4.72354227086382 1.07278813019938 -7.88502297983017e-22 0 0 0)
(-1.08970293681298 0.238348373127061 -6.03376573384908e-17 -4.55815340333852 1.00445609253465 -3.97501550315115e-16 -1.23151132430766e-20 2.39936408028066e-21 1.63014903300184e-36)
(-0.972583707422896 0.202005961924564 6.1872882363597e-17 -4.25491003197773 0.892464684737032 1.96379104191373e-16 -1.29992801363856e-17 2.72649324942626e-18 6.01281951851577e-34)
(-0.846532619269359 0.167439712117522 -4.86696037897729e-17 -3.87234221056119 0.775216773252317 -6.68811453981723e-17 -1.08066630710754e-20 1.91970561768469e-21 7.18678956532171e-37)
(-0.719579105608948 0.133131472747348 -8.63807220536808e-17 -3.47998116682965 0.654559276077042 -2.76414462813925e-16 -1.05758148653257e-17 1.98924840364167e-18 -8.45837662005404e-34)
(-0.568193222252529 0.0962327824771207 9.78865878782634e-18 -2.93906700666634 0.509314526282496 5.06093893838861e-17 8.91818289661868e-18 -1.5451984730498e-18 -1.5430235022405e-34)
(-0.428832220440085 0.0654576165057592 2.78059495913347e-18 -2.39522764532476 0.378272339650742 -3.22385615738621e-19 0 0 0)
(-0.276072934153464 0.0343270230200434 -5.63701228191931e-17 -1.72816052714972 0.230312077995138 -3.23729631293844e-16 0 0 0)
(-0.130299788430891 0.00935219331873211 2.74883011525541e-18 -0.983946186824908 0.0929495202533947 -1.2644886659759e-19 0 0 0)
(0.00488764449713741 -0.0108874289502438 -1.46865061546639e-17 -0.18575682765922 -0.0368133678182595 -9.92344999101495e-17 -3.81228237077885e-21 3.51310025261161e-22 -2.86132626807217e-37)
(0.132909848609015 -0.0261810333608479 2.084797547495e-17 0.72000615614403 -0.157974520193318 9.07090715247156e-17 3.76875312119966e-21 -3.4729871122879e-22 2.82865518730305e-37)
(0.24405014483843 -0.0357833684108093 -3.36774156426727e-19 1.70604601283847 -0.262939680315075 -3.11351643148824e-18 2.56250041614424e-18 -3.94818013274273e-19 -4.67209007765664e-36)
(0.336816671157702 -0.0401557588509534 -2.03294438497439e-18 2.79350114393101 -0.349655278457607 8.50669998829875e-20 0 0 0)
(0.406297102661042 -0.0396740923241983 2.85401036976053e-22 3.9871866242172 -0.413518032154844 1.45872832071391e-20 3.70534184226381e-21 -3.51306792741917e-22 2.96798918482037e-43)
(0.446947802864188 -0.0350039961218313 -2.08412781996535e-21 5.26251891564033 -0.448593459991182 -1.43644207326082e-20 -3.68209605522419e-21 3.4910283876485e-22 -2.94936924434976e-43)
(0.456268132486043 -0.027287650988695 -6.03826182016971e-22 6.65740713601199 -0.454006237516358 2.20414235743705e-23 0 0 0)
(0.431641550920478 -0.0178623151070479 1.95525538410168e-19 8.17456398558154 -0.425280196805275 4.34313357970118e-18 1.13637764782501e-20 -4.03484739300043e-22 8.68041096134065e-41)
(0.369416154849907 -0.00815534676593337 -2.11398675753659e-19 9.81232342440583 -0.360398678023057 3.22611595849471e-18 -2.57883424893506e-20 7.02206724932463e-22 1.21548437078654e-38)
(0.268538503525783 -0.000444526772728193 -3.93691247500844e-17 11.6355029402564 -0.258223121875619 -2.54579561005423e-15 1.44343348565094e-20 -2.99358941902991e-22 -1.22247849273438e-38)
(0.152833530958515 0.0021239951844671 -1.2674193684712e-17 13.6962286505415 -0.146205517494122 -2.76660331447229e-15 1.29723127244329e-18 -1.36502207069458e-20 -2.57641746142249e-34)
(0.0851600573566362 0.00105195319962706 9.03856231263243e-20 15.5601128679191 -0.0752341645549661 3.03610149997219e-19 -2.15231891492525e-20 4.41240567864786e-23 2.54632144408198e-39)
(0.0554605608834687 0.000152010467218471 -2.34371039261572e-20 17.01343773798 -0.0484706571586739 6.947342591697e-20 -2.64477367763877e-20 -7.41659066634442e-24 -1.27830348569627e-40)
(0.0432787322706266 -3.22715354458968e-05 -5.16129688657527e-21 18.1979779750634 -0.0375011227776524 4.4331475251977e-21 -8.34046281795496e-21 1.49037834370537e-23 2.05543134507834e-40)
(0.0363332581259735 -4.4001639990796e-05 -5.70843597766591e-22 19.2044563130969 -0.0312081966452955 -7.03566310720759e-21 2.81683688452424e-20 6.15468091042744e-24 -7.92699375361428e-41)
(0.0310067989095277 -3.42106333289084e-05 2.55097218520755e-21 20.0725458738881 -0.0266591916756793 -2.87976446426363e-20 -1.14088860547239e-22 1.51530781109964e-25 1.63235632008102e-43)
(0.0266710660935632 -2.38999139589364e-05 -4.60607122310868e-24 20.8279833975023 -0.022895340410294 1.36550763083726e-25 0 0 0)
(0.022986677401523 -1.68782835197382e-05 -2.54314635091506e-34 21.4872676219298 -0.019681309857499 2.43302044785168e-20 0 0 0)
(0.019826044222859 -1.18019893729815e-05 0 22.0631541674816 -0.0169149156560539 -2.42296721969896e-20 0 0 0)
(0.0171127871431727 -8.08845701597714e-06 0 22.5664864744844 -0.0145315161210886 0 0 0 0)
(0.014783883844401 -5.39811379003259e-06 0 23.0066606480763 -0.0124837687185625 0 0 0 0)
(0.0127876583419889 -3.4503945798884e-06 0 23.3919166640778 -0.0107289358254347 0 0 0 0)
(0.011078738412691 -2.06265669789909e-06 0 23.7294730316213 -0.00922873294189684 0 0 0 0)
(0.00961700303818985 -1.0913824772094e-06 0 24.0256427741323 -0.00794847664270783 0 0 0 0)
(0.00836750098196053 -4.41629367411465e-07 0 24.285927112919 -0.00685744026234452 0 0 0 0)
(0.00729988499463233 -2.58373773528168e-08 0 24.5151124124709 -0.00592909521687081 0 0 0 0)
(0.00638810286347613 2.10683808369027e-07 0 24.7173576462548 -0.00513986690030219 -6.26737994732925e-21 0 0 0)
(0.00560977952737171 3.186872364124e-07 -4.51486430196981e-22 24.8962694301015 -0.00447031751724414 6.27236229859661e-21 0 0 0)
(0.00494590368016882 3.36587647759152e-07 4.51238462320265e-22 25.0549827822776 -0.00390292559602717 -1.02705535721378e-21 1.87930432761539e-20 6.05326018332736e-26 -4.6623963531457e-45)
(0.00438010783553578 2.90621629333021e-07 4.51488019449364e-22 25.19621823394 -0.00342352912940813 -3.93398816961404e-21 -1.87937922116011e-20 -6.05350141626953e-26 4.66258215774616e-45)
(0.00389889159178137 1.97343529854602e-07 -4.51236873067789e-22 25.3223363205039 -0.00301944635606136 9.51204269174422e-21 0 0 0)
(0.00349012192649696 8.97107695909705e-08 0 25.4354055223883 -0.00268075034056827 -4.56193149867708e-21 0 0 0)
(0.00314502383038756 -6.42202388863736e-08 3.00697782036939e-22 25.5372006113025 -0.00239769937285256 3.87448474677722e-21 0 0 0)
(0.00285338170721038 -1.65528030298047e-07 -3.0059542682625e-22 25.6293385502394 -0.00216507716821545 3.69104716213043e-22 -1.91499348401617e-20 -6.7514099812905e-26 -2.1163725790356e-45)
(0.00261267610393037 -4.00172389819404e-07 -3.00699238296926e-22 25.7131148866845 -0.00197253085439816 -9.57550385916527e-22 1.91498194890577e-20 6.7513693136537e-26 2.11635983090275e-45)
(0.00240891235280539 -3.85752912566901e-07 3.0059397056633e-22 25.7899342618943 -0.00182435454024693 -2.76548603017681e-22 0 0 0)
(0.00225561739527262 -9.03471620265911e-07 -1.05225972024719e-22 25.8605296322409 -0.00169853790587085 -5.75529957199374e-21 0 0 0)
(0.00211366767022368 -3.79875587013489e-07 9.97112718208334e-24 25.9266421679424 -0.0016303312643241 1.26372626646073e-21 9.66923033094203e-21 1.30002398717378e-26 -9.5551097141121e-43)
(0.00205646597393591 -2.06819384742729e-06 2.00425351102161e-22 25.9876705321205 -0.00154236831951117 1.27099327928345e-21 2.06283753050709e-23 -2.07460174051485e-26 2.01046329751477e-42)
(0.00193029009804972 6.2707455821081e-07 6.60060209133523e-23 26.0476452816105 -0.00159187045960688 2.1106629407309e-22 -9.68975200097074e-21 7.746011049595e-27 -1.05497159461386e-42)
(0.00205754883741612 -5.97149741686856e-06 -2.37293547570258e-22 26.1009876266487 -0.00146333768931241 1.07385119110833e-21 -9.72976127437656e-21 6.13558271975599e-26 6.63209384001442e-43)
(0.00178508600461642 6.0381656821315e-06 1.8715772817307e-23 26.1620412892315 -0.00182034788427254 -2.00532262509106e-21 1.94772988023718e-20 -6.21420976143857e-26 -1.13867231299747e-42)
(0.00249770438273188 -2.1231578377575e-05 1.13541601267729e-22 26.204286533526 -0.00133298048871526 1.33567457116473e-21 -1.46341749294035e-20 1.07666841042684e-25 1.43745997864898e-43)
(0.00139693020455024 3.04952898934138e-05 -9.46929867267721e-23 26.2865144153953 -0.00281042436267789 -4.02505125727741e-22 4.88636725032675e-21 -1.06879217487958e-25 3.31726405188805e-43)
(0.00428594294096107 -8.25839379932001e-05 2.85525014110306e-23 26.2925995711318 -0.000533068006020379 -1.0582098117011e-25 0 0 0)
(0.000174065680038858 0.000152297244827438 0 26.4676236881549 -0.00687698722168572 0 0 0 0)
(0.0055400294512891 -0.000322417485675398 0 26.3425630280144 0.00626318280668066 0 0 0 0)
(0.0101375488866382 -0.000624189372653996 0 26.7150199163372 -0.0269163744047862 0 0 0 0)
(-0.00257697380879367 0.000282780105702244 0 22.6286141610381 0.00135032559653577 -3.31251785340564e-21 0 0 0)
(-0.00405139970322344 0.000242737962769586 -1.54614893796284e-21 22.61738516818 0.00488415964075753 3.31418966169385e-21 0 0 0)
(-0.00727918358156423 9.20333339686035e-05 1.5478911827151e-21 22.6088592282388 0.00716625494987315 -9.50783818500383e-22 1.37922439484175e-20 2.95514256521137e-24 8.33789256681946e-45)
(-0.00894324165764235 6.27094366787966e-05 1.54614880586178e-21 22.5848835868047 0.00870304316810508 9.60459510911819e-22 -1.3792244297437e-20 -2.9551426399927e-24 -8.33789277781392e-45)
(-0.0102940546015021 8.88173909970104e-05 -1.54789131481616e-21 22.5488915166016 0.0102143223105091 -5.73615821674104e-24 0 0 0)
(-0.011871345805711 9.83111326670358e-05 0 22.5045246651159 0.0118001851126425 -2.66099736943686e-20 0 0 0)
(-0.0135517789732752 0.00010633484692553 3.1492618942994e-21 22.451102544555 0.0134802121973496 2.66643075687407e-20 0 0 0)
(-0.0153713253242389 0.000120383753829253 -3.15644922414275e-21 22.3880157970334 0.0153235052848716 4.89916809945599e-20 -2.7009959332014e-20 -1.0471179175516e-23 6.87803482253547e-44)
(-0.0174098221454238 0.000137538855070612 -6.35379698075793e-21 22.3147569016198 0.0173883306155227 -4.91251123974326e-20 2.70099462201672e-20 1.04711740923355e-23 -6.87803148362861e-44)
(-0.0197176546918765 0.000157749454587767 6.37049535694293e-21 22.2303899094862 0.0197277724833446 -1.92340832040142e-21 2.66546234531286e-20 1.32972382273235e-23 9.10174049005644e-44)
(-0.022350792972499 0.00018197396238765 3.20453550256072e-21 22.1336479897005 0.0224025036835309 2.01506593182663e-21 -2.66546294673311e-20 -1.32972412276391e-23 -9.10174254372307e-44)
(-0.0253784981582593 0.000210924091140902 3.46025439465474e-21 22.0229539330221 0.0254828428439079 -5.58919195445977e-20 0 0 0)
(-0.0288825304465458 0.000245616456355689 -1.35008766713396e-20 21.8963462601407 0.029052404681981 6.00596753754812e-20 -5.18427823401357e-20 -3.88162776822422e-23 1.30667830485861e-40)
(-0.0329636850839564 0.000287563227961297 -6.78399874278666e-21 21.7514036897899 0.0332140781593068 -6.61741125542877e-20 1.03054769318651e-19 8.31369345106504e-23 -3.91188804011999e-40)
(-0.037749134245702 0.000338861961363091 1.33721547015597e-20 21.5851397614599 0.038097959469464 5.80848692078893e-20 -7.22557351912902e-22 6.48616733493445e-24 2.55956828774921e-40)
(-0.0434063705042104 0.000402574555427502 1.45784080531289e-20 21.3938540272118 0.0438727189837817 1.36517220504597e-22 -8.30842686974831e-22 7.7056920782317e-24 2.79045761669988e-40)
(-0.0501545379435197 0.000483525871741199 -7.23884886329564e-21 21.1729011315303 0.0507629935451128 8.82346955064893e-21 -9.83568651700806e-20 -1.26279938981976e-22 -4.10404422781688e-40)
(-0.0583209665171668 0.000588666335237067 -1.44687117269306e-20 20.9163698719565 0.059087801442531 -6.8506068702521e-20 4.86985024224896e-20 6.7767665203527e-23 1.35922904125034e-40)
(-0.0683041971614023 0.000737666380600871 7.36756852785357e-21 20.616526174346 0.0692799069367668 6.43050472425587e-20 0 0 0)
(-0.0811422901891736 0.000954567118660753 -8.52418248175061e-21 20.2630439294961 0.0822208952303536 -1.57944216010538e-22 0 0 0)
(-0.0975066683572869 0.0016206492126559 -4.39829665125455e-20 19.841110916596 0.0988217168301989 -1.28875048335379e-19 4.27436067086236e-20 1.42048174612974e-22 -1.00471407264503e-39)
(-0.121025655021212 0.00352081434318468 3.11320629128512e-19 19.3344239021605 0.123330995544142 -1.90954226991678e-18 8.97731233564184e-20 1.16648979297665e-22 6.55639059308864e-39)
(-0.169265076865061 0.00628813591049852 8.20745379976736e-21 18.7590820358316 0.168453643823935 4.41361304494662e-18 -8.06410119569758e-19 -5.03046317479355e-21 1.55444168132186e-38)
(-0.244798078835034 0.00849734919267044 -3.00100318236997e-18 18.1727088912752 0.241906328222031 -7.85845138839275e-20 7.77845790299594e-20 6.8766598732012e-22 1.07966088633618e-38)
(-0.352385854122201 0.00874406243427745 -1.33956549356197e-18 17.6473646308235 0.346841316392153 8.01293321325595e-17 1.253660565256e-17 2.36736929231369e-19 3.20430767251478e-36)
(-0.493537182564072 0.00565292199624511 8.1996800026612e-18 17.2244762378919 0.48437456247285 1.5603415631506e-17 7.13390830544549e-20 2.37019607692127e-21 2.26421274146113e-37)
(-0.667672731108033 -0.00228147459547281 9.03362824479703e-18 16.9241472902178 0.655689304960915 -7.61727590430032e-17 -2.4287544283931e-17 -9.48867660121554e-19 -5.9733627153327e-35)
(-0.881767270386571 -0.0177126590076924 -7.77681544186862e-18 16.7614957242727 0.865194597893907 3.38251685288201e-17 -1.17375437711058e-17 -6.295745856634e-19 2.52127898054045e-36)
(-1.13247639645602 -0.0429088470448366 -6.06601364642932e-18 16.740115461722 1.1151098612669 3.70323971396164e-20 0 0 0)
(-1.43658679833636 -0.0827534343474162 -5.29689546178533e-20 16.8671014396003 1.41499040707621 3.25800167514642e-19 0 0 0)
(-1.79229612254556 -0.14193328876353 -2.3976140201644e-17 17.143926771144 1.77105299944602 -4.91485505512523e-19 8.11206458200232e-20 9.60269930196074e-21 -9.45757574494388e-37)
(-2.21064244385984 -0.226312273981067 2.20944195330713e-18 17.5728654047658 2.19077127833608 -1.57213508261572e-17 5.65036345135522e-17 7.36895254245624e-18 -9.50758205362949e-34)
(-2.70242677040633 -0.343912378575072 5.33925197138745e-17 18.1495078472768 2.68558770630979 -3.30968739868651e-16 -5.4733701457675e-17 -8.09403347122749e-18 9.98426083280572e-34)
(-3.27664510469455 -0.504289797963586 2.40855269784219e-17 18.8831656212654 3.2678417057967 -1.37831921166616e-17 6.60232541186182e-17 1.1812491770191e-17 -9.15007130008046e-34)
(-3.94615825894821 -0.718063181788285 1.24212399581004e-16 19.789589996289 3.94905358440807 -4.8978455374338e-16 -1.32298746330657e-16 -2.67718010643961e-17 -3.29635981866087e-34)
(-4.71675020106607 -0.994098581691792 1.19845428887964e-16 20.8696566478373 4.73889122987381 -2.91306411182076e-16 -6.37603834226652e-17 -1.44690267371286e-17 8.99436452389931e-34)
(-5.62276114934134 -1.35509947783048 -1.55913585927445e-16 22.141624979665 5.66456169548064 5.88882949515122e-16 -4.84231740081451e-16 -1.24925278139425e-16 -9.44127888187505e-33)
(-6.64656701569193 -1.80203631079861 9.49084891376813e-17 23.6380936158974 6.72861071612576 -4.88134912857523e-16 0 0 0)
(-7.85385925600178 -2.37024786616448 -5.36447859286987e-17 25.3866656889006 7.97001741128443 1.65738392265752e-16 -2.1310348648692e-16 -6.67733240443857e-17 1.53021537316724e-34)
(-9.21197638701001 -3.05459691816048 -1.04530436286286e-16 27.4290782383586 9.39408413740441 2.21154615430813e-16 1.73082687821064e-16 5.92633945072622e-17 1.399924720324e-33)
(-10.8175636310914 -3.91224793201286 -6.36529432244948e-18 29.8479046960326 11.0638048682243 -2.01170588704304e-19 0 0 0)
(-12.5806927581352 -4.88061787038523 -5.12930962835776e-17 32.7754184177154 12.9397198351747 1.30914723744044e-16 5.11412399336651e-16 1.99276026814297e-16 2.26019146231163e-34)
(-14.57661781855 -5.97423087407292 2.08840912793939e-17 36.2690845165739 15.0304876328721 1.84299893472761e-19 0 0 0)
(-16.6866600230149 -7.09983999812702 6.91886436736441e-17 40.4035537384164 17.2701686298654 -1.64854007491527e-16 6.46494555563793e-16 2.70903032019895e-16 4.64244120072199e-34)
(-18.8520023733218 -8.15307631053445 -1.52581022912325e-17 45.266812153651 19.5531756499107 -2.46521289366108e-20 -3.89183477613075e-20 -1.64468811392932e-20 2.30605678092562e-39)
(-20.9423426604994 -9.01737528822532 -1.77316397014441e-16 50.8175933393132 21.7416693989664 5.56850276207652e-16 -3.28656108719023e-16 -1.40608881071253e-16 -3.60523636572257e-33)