/*--------------------------------*- C++ -*----------------------------------*\
| =========                 |                                                 |
| \\      /  F ield         | OpenFOAM: The Open Source CFD Toolbox           |
|  \\    /   O peration     | Version:  3.0.1                                 |
|   \\  /    A nd           | Web:      www.OpenFOAM.org                      |
|    \\/     M anipulation  |                                                 |
\*---------------------------------------------------------------------------*/
FoamFile
{
    version     2.0;
    format      ascii;
    class       volScalarField;
    location    "7000";
    object      k;
}
// * * * * * * * * * * * * * * * * * * * * * * * * * * * * * * * * * * * * * //

dimensions      [0 2 -2 0 0 0 0];

internalField   nonuniform List<scalar> 
14000
(
0.000258717656439003
0.000258455030319601
0.000256447567113596
0.000254260088192538
0.000252043948963749
0.000249499652720691
0.000246629384206221
0.000243436713852902
0.000239874902909223
0.000235896369932451
0.000231450280806727
0.000226476332086754
0.000220905393072874
0.000214659089911147
0.000207647825000552
0.00019976994024022
0.000190907669775689
0.000180928401412836
0.000169665400516211
0.000156960370781903
0.000142398293820966
0.000125980154264042
0.000111637468785678
0.000101672722304209
9.54901371200161e-05
9.2601022656503e-05
9.24313016691111e-05
9.5822966410974e-05
0.00010186599687381
0.00011161626604694
0.000125466647619309
0.000142644761519687
0.000164624228460858
0.000192510282258046
0.000226829094041009
0.000266103928334502
0.000316641025955049
0.000373974375217149
0.000444985873214502
0.000527933389866517
0.000639442887863759
0.000769888540445353
0.000919410735809891
0.00109245592523221
0.00127022716934226
0.00144152677372077
0.00160551988017482
0.0017415784354634
0.00183529115126929
0.00186508025111411
0.00180817512648109
0.00168757385136004
0.001496980031338
0.00127290123797289
0.00106130134960132
0.000891139951914508
0.000759874235727681
0.0006475697363654
0.000553281807766748
0.000474277919406313
0.000404976906319916
0.000343245456953685
0.000289185677638537
0.000239193558250908
0.000196108938198087
0.000157365877010367
0.000122210387333213
9.12391695294974e-05
6.75487272485131e-05
4.75926363914136e-05
3.29072764337044e-05
2.22111263265338e-05
1.71595600868871e-05
1.95651527611246e-05
2.27463309737938e-05
2.54052145278606e-05
2.76533132114414e-05
2.92178362192599e-05
3.11334047066797e-05
3.16343903132543e-05
3.21512393563241e-05
3.25263460245672e-05
3.23619486543418e-05
3.19626405101279e-05
3.1492717625074e-05
3.07835191559936e-05
2.95669634291642e-05
2.86299487462109e-05
2.71281529995003e-05
2.56958888010028e-05
2.41044385828851e-05
2.22283119333622e-05
2.04779694530826e-05
1.85955835752386e-05
1.67758518213317e-05
1.66217746127905e-05
2.13705809392763e-05
2.74764198849614e-05
3.55512599205916e-05
4.60299682322043e-05
5.94831916733473e-05
7.74738235046357e-05
0.000101406620986782
0.00012424326253629
0.000141802626383571
0.00015645087369264
0.000169360921511932
0.000180797447545901
0.000190954513672865
0.000199937517698575
0.00020784257562294
0.000214771697003831
0.000220826592487205
0.000226106294609404
0.000230704314460205
0.000234706675379086
0.000238191215816804
0.000241227416422013
0.000243876828537338
0.000246193558660156
0.000248225003675591
0.000250012645922418
0.000251592423112486
0.000252996172757952
0.000254250772994366
0.000255381593929989
0.000256407434544508
0.00025735224187016
0.000258222918745783
0.00025905620199888
0.000259824177200406
0.000260630546255924
0.000261308545751498
0.000262255399698644
0.00026271062961645
0.000264337296901749
0.000263810738602394
0.000268160845176462
0.000263724847976998
0.000273448120315361
0.00060958826034125
0.000608100643006079
0.000606558061654002
0.000605225075513473
0.000603740032477335
0.000601956547969735
0.000599845980780428
0.000597357042562872
0.000594430210201977
0.000591006382164942
0.000587020509774327
0.000582398966422738
0.000577057634614907
0.00057089884308521
0.000563807350115369
0.000555645406922439
0.000546245689441465
0.000535396769815227
0.000522835755427484
0.000508186271352094
0.000490648074735542
0.0004719626025025
0.000457936821343623
0.000448034070042524
0.000440550647429413
0.000434555308372873
0.000429378401412432
0.000427549271656361
0.00042702801401368
0.000430789818587135
0.000435240150285192
0.000440088978098993
0.000446788923161026
0.000454744242584764
0.000462861891314092
0.000470845131668353
0.000483148953435813
0.000493175194237823
0.000509255727030025
0.000526061659951059
0.000555065840728377
0.000582799276779035
0.000618891547722801
0.000659451119784546
0.000702224333472907
0.000746908831800636
0.000794416991472381
0.000839191585803444
0.000880171765891605
0.000911401555586932
0.0009272915478139
0.000930575755583208
0.000917136802858132
0.000900123097737239
0.000890673797056388
0.000899213920822463
0.000917469068163026
0.000938025862981452
0.000958385424443526
0.000973868265112042
0.000981104144287464
0.000979452551981606
0.000968272850853638
0.000946919733211687
0.000919680147038352
0.000881641812761217
0.000836743371635775
0.000786869349780061
0.00073626110534835
0.000677654684392848
0.000622843902936442
0.000565913369920164
0.000518594528970273
0.000469839976677782
0.000430505381305588
0.000394597105205059
0.000366722000097867
0.00033948970655668
0.000321446863668967
0.000308366619264103
0.000295880618190708
0.000290525390551406
0.000287293362818769
0.00028781582157386
0.000290403160878755
0.000300560685661289
0.000308497337738853
0.000321391850999366
0.000337287602168813
0.000353089298953471
0.000375885812921138
0.000397057033152266
0.000422272906688289
0.000449715684310755
0.000479430902545541
0.000512279029164571
0.000547389061187257
0.000583922277466134
0.000624422075268119
0.000666719685527671
0.000712622166892114
0.000766648642530448
0.000818795813686568
0.000839701450188121
0.000842453126794082
0.000838694687324002
0.00083284009079045
0.000826429041920228
0.000819750828137656
0.000812883907568011
0.000805910421343555
0.00079892359437606
0.000792014712549108
0.000785259545210201
0.000778715028488801
0.000772419629469988
0.000766397050289845
0.000760659546806702
0.000755210812886702
0.000750049115628378
0.000745168190028459
0.000740559794018968
0.000736213696638881
0.000732119544732714
0.00072826607970464
0.000724643732349893
0.000721240874943514
0.000718052375219811
0.000715063066416224
0.000712282133469117
0.000709674402393332
0.000707301387172018
0.000705036471734047
0.000703152023759573
0.000701115826520041
0.000700118763408476
0.000697694865428977
0.000699750665640368
0.000692374346594253
0.000707640497413369
0.00280540106368675
0.00280337973934418
0.00280165556440936
0.00280059668674093
0.00279937640424876
0.0027976613159392
0.00279531245434345
0.00279216630794694
0.00278806899825971
0.00278287407522269
0.00277642474575919
0.00276854663465218
0.00275904030304889
0.00274767059625678
0.00273415415729686
0.00271814108419025
0.00269919526009676
0.0026767395771833
0.00265004846501207
0.00261804212398737
0.0025786035293086
0.00253533145323278
0.00249821027485788
0.0024655125976723
0.00243399817102011
0.00240217963727703
0.00236883125438993
0.00234355192302902
0.00232429759067936
0.00231716322601371
0.00231219483559223
0.00230745825712892
0.0023061414970384
0.00230684846738152
0.00230550234822479
0.00230226367798892
0.00230584986401465
0.0023019706149777
0.0023076020931059
0.00231223629842865
0.00233757628569843
0.00235169966311014
0.00237663389284489
0.0024022968533319
0.002428160720069
0.00246169138054694
0.00250989132725688
0.00256948138086421
0.00264906207277276
0.00275645541412153
0.00290156425040899
0.00308741170130703
0.00330855448102882
0.00357899726099885
0.00389149720692346
0.00423813986661637
0.0045810747283027
0.00490234675710356
0.00518940852881522
0.00542330952978617
0.00559338621760568
0.00569854590226425
0.00573575010989555
0.00570912880677655
0.00563076054357875
0.00548950310241466
0.00529870878285689
0.00506964197142126
0.0048116096189909
0.00450678297751878
0.00419558429191409
0.00386578464183652
0.0035648900464301
0.00325468056901193
0.00298700566299059
0.00274348399320855
0.00254502800997672
0.00235825450679209
0.0022247509543408
0.00212463259692755
0.00203488607509268
0.00198574224914462
0.00195419908526672
0.00194506794420777
0.00195061202218372
0.0019990514220241
0.00203755046858116
0.0021012103738271
0.00218012628536575
0.00225872216162195
0.00236796288207204
0.00247007785514776
0.00258636874999088
0.00271010567241563
0.00284014854050417
0.00297809633880664
0.00311837823069067
0.0032589256186439
0.00340697734738249
0.0035555209975038
0.00370793408056917
0.0038762771302828
0.00402986111056424
0.00409145185651179
0.00408835882348532
0.00405618384151164
0.00401285240464812
0.00396596001095594
0.00391806654597898
0.00387021814728492
0.00382307605276707
0.00377715157289778
0.00373284194463782
0.0036904283675171
0.00365008668873127
0.00361190358079048
0.00357589730073409
0.0035420369413152
0.0035102563753744
0.00348046898974035
0.00345257354022116
0.00342646354874039
0.00340203037755509
0.00337916732032714
0.00335777166403972
0.0033377463910396
0.00331900015280303
0.00330145125056498
0.00328502054962124
0.00326964704392648
0.0032552587357417
0.00324183045901356
0.00322927527790791
0.00321766664483361
0.00320678460103167
0.00319718108799598
0.00318743402301612
0.0031824065563493
0.00316768853610707
0.00318272184435975
0.0044158188809258
0.00441472631096285
0.00441383936016529
0.00441392991701332
0.00441460192997219
0.00441550567516359
0.00441642811104179
0.00441718169449446
0.00441760742342037
0.00441757187083035
0.00441695358243896
0.00441563535146749
0.00441349803808048
0.00441041290922292
0.00440623397169206
0.0044007856552826
0.00439385556546229
0.00438515302051845
0.00437433607970779
0.004360862032316
0.00434343630080481
0.0043264895370338
0.00431877273169589
0.0043171753651965
0.00431511761328652
0.00430762314895395
0.00429233946531216
0.004273627021576
0.00425254510200608
0.00423714404993776
0.00422146935729232
0.00420428400616485
0.00418867024306383
0.00417447827446378
0.00415807186067114
0.0041405691139266
0.00412885511233499
0.00411231767940568
0.00410392343555072
0.00409672794838419
0.00410727970363211
0.00410741651300132
0.00411277349490334
0.00411394544760536
0.00410927332966424
0.00410667924157384
0.0041151063998734
0.00413711096953183
0.0041829669225317
0.00426781328749398
0.00441908202564899
0.00465946807918273
0.00500844630797604
0.00549689876141069
0.00612843927152647
0.00687829508329802
0.00767698444405976
0.00847049095395202
0.00921619378653048
0.00987157372711746
0.0104105776435671
0.0108262697993512
0.0111117244344874
0.0112764837048453
0.0113335469516054
0.0112752280287349
0.0111197188874309
0.0108897079317463
0.010585643671106
0.0101909130291411
0.00974805296791165
0.00924846165621631
0.0087460969227244
0.00819832810072968
0.00768347875974071
0.00718958421059586
0.00675369621366172
0.00633457324052691
0.0060072471491971
0.0057394281438452
0.00550187963691753
0.00533868127150686
0.00521749393293914
0.00514017441139586
0.00509495407064533
0.00511823551457443
0.00513793461000007
0.00519677287482254
0.00527973198799814
0.00536800189716959
0.00549551518718234
0.00561822303871004
0.0057567682870866
0.00590472034520428
0.00605965475141957
0.00622285002257749
0.00638726210502418
0.00655000924118565
0.00671843797475382
0.00688555319114188
0.00705337304232714
0.00723492858307584
0.00739640536692405
0.00745221910876178
0.00741895292262824
0.00733621281976092
0.00722984487162965
0.00711344331684101
0.00699337433584564
0.00687291813768999
0.00675408386299766
0.00663825131833775
0.0065263982478452
0.00641919181447636
0.00631705261375263
0.00622020278868158
0.00612871182950256
0.00604253644482404
0.00596154909420913
0.00588556857366799
0.00581437311880445
0.00574772069679961
0.00568535734010036
0.00562702600700037
0.00557247378735886
0.00552145361895264
0.00547373050385452
0.0054290802217358
0.00538729492526144
0.00534817595323843
0.00531155142567606
0.00527723785926081
0.00524512825374598
0.00521500778928473
0.00518692548322403
0.00516056241684356
0.00513597027456204
0.00511429420929764
0.00509031381444892
0.00507398534395604
0.00518124032349316
0.00518088446558483
0.00518042565251663
0.00518069661789494
0.00518178986297334
0.00518358981394764
0.00518596662327317
0.00518878291971191
0.00519191399320668
0.00519525768529105
0.00519873231887704
0.00520227453251321
0.005205837831095
0.00520939058477387
0.00521291529582726
0.00521640567994666
0.00521987286377764
0.00522332887376498
0.00522683490795839
0.00523047641493528
0.00523392209811615
0.0052411604144654
0.00525963250826032
0.00528829688486643
0.00532083718693893
0.00535009058247382
0.00537112605596456
0.00538292321820574
0.00538593254470076
0.00538681934869355
0.00538295490685219
0.00537398029750673
0.00536260881455898
0.0053497070746373
0.00533291996734422
0.00531369293375151
0.00529736305264732
0.00527694141117937
0.00526171235342723
0.00524745994424136
0.00524617462230897
0.00523544933905729
0.00522412727779945
0.00520295786942594
0.00516772696236342
0.00512252563993509
0.00507381130659418
0.00502455313709967
0.00498432702936307
0.00496411072781665
0.00499525052332823
0.00511040452815057
0.00534820293766999
0.00575651228034755
0.00636797143491907
0.00717721805233901
0.00813305270234853
0.00917200107981976
0.010227410363799
0.0112327693706022
0.0121369135188021
0.0129116314924823
0.0135368313068516
0.0140150983904316
0.0143523049178104
0.0145462904365972
0.0146116071772116
0.0145754897623969
0.0144349509641175
0.0141788771576817
0.0138355020698285
0.0134033774453895
0.0129219537398148
0.0123571793217924
0.0117804170742488
0.0111957498935727
0.0106442841024616
0.010095992665943
0.00963609977855958
0.00923977922474229
0.00888221454135091
0.00860806720972277
0.00839165718670857
0.0082299737327562
0.00811254264455286
0.00807361194130615
0.00804453891147084
0.00806138745889404
0.00811026262370291
0.00817251922233442
0.00827765909572614
0.00838577192098979
0.00851148838391224
0.00865012175957929
0.00879829697666925
0.00895668094327567
0.00911795537987323
0.00927832927842458
0.00944403817047139
0.00960883541111924
0.00977310372257693
0.00994893626055895
0.010103721021707
0.0101523332517251
0.0100998675583608
0.00998305832823472
0.00983068218870372
0.00966020419780226
0.00948118270569301
0.00929907665924748
0.00911731999214217
0.00893825394306585
0.00876353830383672
0.00859434449416981
0.00843147629191243
0.00827544668400787
0.00812654319179249
0.00798488144402775
0.00785044263675739
0.0077231154595508
0.00760271256467991
0.00748900022225653
0.00738170982800907
0.00728055174279544
0.00718522681153122
0.0070954296737451
0.00701085972273596
0.00693122021276332
0.00685622743512032
0.00678560309438871
0.00671909550224621
0.00665643790217446
0.00659744462861087
0.00654181485738249
0.00648952178782513
0.00644013402726176
0.00639377908167508
0.00635046595735994
0.0063102988091784
0.00625822518014171
0.00557165347991578
0.00557164999915656
0.00557137812826671
0.00557151447144697
0.00557234756146984
0.00557396968993059
0.00557639697790117
0.00557959435851385
0.00558350763874872
0.00558808589018443
0.00559329068660409
0.00559910149661108
0.0056055200215928
0.00561257368653799
0.00562032061376679
0.00562885383343468
0.00563831604237207
0.0056489008152032
0.00566091036780317
0.00567480529612398
0.0056908869313083
0.00571275985311763
0.00574715881158456
0.00579528237578832
0.00585308108383822
0.00591369775900953
0.00597072890025886
0.00601966847112352
0.00605749007628122
0.0060881763891461
0.00611006992257254
0.00612322825726831
0.00612993293592243
0.0061314634782708
0.00612647145883715
0.00611666504818586
0.00610645258418384
0.00609128449274636
0.00607846193904733
0.00606548051834546
0.00606177601776945
0.00604900045732861
0.00603246930881659
0.00600293781555617
0.00595435102801427
0.00588738984977244
0.00580519639765348
0.00570802600259844
0.00560205511367247
0.00549140445401213
0.0053975063913217
0.00535005071149719
0.00538795246333162
0.00556678133420477
0.00594143988285242
0.00654093517937258
0.00735785141677838
0.00835789223478603
0.00948318724920422
0.0106609935074379
0.0118195613252408
0.0129024476361872
0.0138652254241775
0.014690060598171
0.0153668170565716
0.0158904331344325
0.0162675187373718
0.0165224611497289
0.0166525306002365
0.0166498263665562
0.0165300534319172
0.0162934957022518
0.0159669055280321
0.0155197502949353
0.0150091386119909
0.014448963475952
0.0138824813605485
0.0132907082300975
0.012762995507393
0.0122900111304409
0.0118518028970015
0.0114943637819315
0.0112017417854187
0.010969149964058
0.0107875682008771
0.010689724417363
0.0106132672233367
0.0105870154666058
0.0105996196235093
0.0106323083240454
0.0107107295161151
0.0107992459044639
0.0109073459562308
0.0110314519373775
0.0111675552022173
0.0113157028970712
0.0114684977257019
0.0116213829786742
0.0117794592029714
0.0119369984043769
0.0120931185289632
0.0122585512707338
0.0124018242074663
0.0124400806692449
0.0123710618833777
0.0122281712426608
0.0120409492420192
0.0118290236747031
0.0116041398556909
0.0113734261614876
0.0111414751298276
0.0109114222254232
0.0106854852661153
0.0104652422633204
0.01025180483438
0.0100459231785704
0.00984806980766831
0.00965850486829414
0.00947732044211538
0.00930449088716157
0.00913989058178884
0.0089833302218152
0.00883456945098243
0.0086933337683772
0.00855932852295508
0.00843224264604732
0.0083117627621342
0.00819757240350533
0.00808936274746217
0.00798682664497353
0.00788967756783512
0.0077976159321068
0.0077104095499235
0.00762773476748311
0.00754948489681964
0.00747523926223396
0.00740509167894807
0.00733825364735769
0.00727943464781368
0.00719123066211258
0.00578351147001637
0.0057837517505651
0.00578367401368419
0.00578376615112524
0.00578433199765457
0.00578555821428726
0.00578756939203979
0.00579043152715964
0.00579417400604925
0.00579881217714361
0.00580436137275386
0.00581084727700032
0.00581831483889736
0.00582683623236737
0.00583652030470558
0.0058475221149362
0.00586006333629608
0.00587444548806201
0.00589111302477324
0.0059107395234384
0.00593403631358498
0.00596427951606629
0.00600734330151166
0.00606571727218296
0.00613780126466361
0.00621865602536094
0.00630231903564369
0.00638281071264377
0.00645497151449979
0.00651889040817546
0.00657244683727348
0.00661522343243978
0.00664862669115028
0.00667370185299056
0.00668957317648914
0.00669805491372259
0.00670277896157498
0.00670091902880542
0.00669856270717292
0.00669449898600515
0.00669649731338144
0.00668930235732377
0.00667649964787571
0.00664924329007782
0.00660070551776947
0.00652971544715756
0.00643731933392554
0.00632171191105766
0.00618604556861785
0.00603006799502169
0.00586448954830554
0.00570920528482668
0.00559052564867
0.00555553211541015
0.00566022529568434
0.00595399758678064
0.00646607213798599
0.00720570623730629
0.00815456715423731
0.00926681429580741
0.0104777234407918
0.0117178029695443
0.0129202710428454
0.0140406043603014
0.0150434070369521
0.0159106005387211
0.0166346085072031
0.0172288513910792
0.0176875573068358
0.0180048430160124
0.0181849277041639
0.0182262854376911
0.0181442362099261
0.0179094390077438
0.0175617779713599
0.0171174503819936
0.0166195421438606
0.0160574321469683
0.0155210089822635
0.0150186929886702
0.0145366672804287
0.0141235949792956
0.0137742954421932
0.0134854491634718
0.0132497594242035
0.0130997764529981
0.0129798447070062
0.0129127640789582
0.0128900389739966
0.0128927151755962
0.0129434729719579
0.013010286110178
0.0130986621983031
0.0132055930406806
0.0133266348670343
0.0134612551885493
0.0136020204936132
0.0137437407430247
0.0138904792016704
0.0140367981530969
0.014180810177816
0.0143317860888979
0.0144590291520391
0.0144823240814245
0.0143948647017113
0.0142273198782983
0.0140092248615169
0.0137614529723307
0.0134972560115656
0.0132250248985186
0.0129502788661243
0.0126768030460876
0.0124072685855174
0.0121435747586347
0.0118870674462144
0.0116386702861034
0.0113989861333997
0.0111683737618904
0.0109469987862964
0.0107348915232185
0.0105319658910208
0.0103380612646698
0.0101529558210394
0.00997638575541773
0.0098080610670187
0.00964766919720547
0.00949489161492972
0.00934940246277088
0.00921088084606339
0.00907900482262163
0.00895347043575531
0.00883395984632535
0.00872021820971112
0.00861190531241326
0.00850888122422503
0.00841069768886718
0.00831755137264505
0.00822771853970014
0.00815041591861674
0.00802778319649311
0.00589934729621784
0.00589977246795464
0.00589990000277124
0.00590006655484449
0.00590052118281897
0.00590145898023253
0.00590304898137225
0.00590542016751931
0.00590866796387675
0.00591286875989577
0.00591809179969262
0.00592441004731009
0.0059319108294407
0.00594070625580099
0.00595094550825698
0.00596282800646966
0.00597662748924221
0.00599271321865198
0.00601161683431878
0.00603413331009349
0.00606123492468145
0.00609594753320757
0.00614325094608106
0.0062060231257421
0.00628436057798662
0.00637548606917705
0.00647502928852533
0.00657730564209532
0.00667654577623778
0.00677009266616036
0.00685467893902788
0.00692872447672123
0.00699237255723631
0.00704589968261661
0.00708833809162218
0.0071212990442768
0.0071475284187507
0.0071653658146419
0.007179899896807
0.00719089579895774
0.00720475759128674
0.00720873334066579
0.00720545411769061
0.00718670360028783
0.00714550976041472
0.00707985249943466
0.00698968377007152
0.00687221795794598
0.00672889488566637
0.00655732412384688
0.00636257719128634
0.00615685777456883
0.00595455723382648
0.00578843862877223
0.00570075366685465
0.00573871674771678
0.00594225664318358
0.00634639921380557
0.00697209788580043
0.00781796292789334
0.00885701729157063
0.0100397278773465
0.0113005021638697
0.0125794920999883
0.0138169007198791
0.0149750205923971
0.0160259157306475
0.0169639921705227
0.0177726948965029
0.0184447690217993
0.0189719464967455
0.0193480754577484
0.019575910144618
0.0196269678674293
0.0195225392649997
0.0192748246866052
0.0189228712232921
0.0184616459883641
0.0179772219096737
0.0174947298541132
0.0170085433559715
0.0165703324788254
0.0161863851648595
0.015857744710572
0.0155796332179964
0.0153856365457803
0.0152272592920878
0.0151226079995584
0.0150661573481792
0.015039109057404
0.0150617828431046
0.0151053579744951
0.0151722761554444
0.0152597690923234
0.0153631010784155
0.0154812118389574
0.0156066580741764
0.0157337252715484
0.0158655230147014
0.015996750571255
0.0161246747750936
0.0162570870518489
0.0163638703825063
0.0163676253764548
0.0162586994491512
0.0160655685780013
0.0158174677545006
0.0155360104000753
0.0152355162417025
0.0149253462295542
0.0146117683188141
0.0142991065173816
0.0139904089948169
0.0136878371040387
0.0133929209504333
0.0131067137729087
0.0128299099034593
0.0125629323330334
0.0123059900730857
0.0120591430048028
0.0118223220377106
0.0115953759306239
0.0113780853104965
0.0111701838719279
0.0109713756959419
0.010781338660725
0.0105997432087753
0.0104262501065061
0.0102605245374258
0.0101022287091439
0.00995104339866676
0.00980663207087449
0.00966872611172388
0.00953696068992668
0.00941119368023503
0.00929090151462798
0.00917648531719253
0.00906519267477176
0.00897050762982939
0.00881611941247415
0.00595790531231385
0.00595847348767384
0.00595879505257783
0.00595910366560573
0.00595958474915485
0.00596040313525428
0.00596172576871004
0.00596370333943837
0.00596646698744172
0.00597013446673012
0.00597481711426845
0.005980628192726
0.00598769267449402
0.00599615800540568
0.006006207478509
0.00601807535757876
0.00603207301292212
0.00604861511004466
0.00606828878700512
0.00609195898239815
0.00612075613298814
0.00615751510755893
0.00620644422139021
0.00627030368677865
0.00635005531671317
0.00644457081476215
0.00655125991444686
0.00666569981101869
0.00678274614803435
0.00689859286459808
0.007008985411924
0.00711127688150976
0.00720425407595237
0.0072871205739077
0.0073583847032074
0.00741912609636936
0.00747101820744356
0.00751306135575734
0.00754930714535199
0.0075801481205287
0.00761066115743259
0.00763014179544219
0.00764055857900353
0.00763437998347449
0.00760480496078622
0.00754946780316636
0.00746774190681041
0.00735646261579954
0.00721615911921973
0.00704358928104685
0.00684128569937922
0.00661747718236219
0.00637983948587943
0.0061506880902051
0.00595858545728373
0.00583910578988737
0.005824492475878
0.00595018247471354
0.00625155801821263
0.00675679312111771
0.00747980105756717
0.00841309381685964
0.00952334064543962
0.0107644987237414
0.0120724046202633
0.0133962004059445
0.014688448394061
0.0159205722240696
0.0170573568584846
0.0180839445826976
0.0189764846650379
0.0197206114577134
0.0203034656791969
0.020696442981709
0.0209019520321048
0.0209233789929931
0.0207910522738809
0.02050247825809
0.0201350716120898
0.0197268948849898
0.0192821550580129
0.0188552016412557
0.0184639246539907
0.0181161753919985
0.0178109597782882
0.0175837988109443
0.0173942240697157
0.0172570464375827
0.0171697842999444
0.0171144395417923
0.0171094078343015
0.0171289378007352
0.0171731658998479
0.0172393865230521
0.0173227048848998
0.0174216014924664
0.0175286647370393
0.0176377622901038
0.0177511147295712
0.0178634644304186
0.0179713424556566
0.0180810661272673
0.018163067149825
0.0181430221029479
0.018009524883273
0.017789201360007
0.0175108217644976
0.0171964154558713
0.0168610652487612
0.0165148837272786
0.0161647468507176
0.0158154281000475
0.0154702925272066
0.0151317190964123
0.0148013861632089
0.0144804459061829
0.0141696572701914
0.0138694836937615
0.0135801566000514
0.0133017467649718
0.0130341857657651
0.0127773173199313
0.0125309119517798
0.0122946899525692
0.0120683400633409
0.0118515226145457
0.0116438902655508
0.0114450847499427
0.0112547528937491
0.0110725371101263
0.0108981008716811
0.0107310854047383
0.0105712103857059
0.0104180782093162
0.0102715598988882
0.010131026074651
0.00999712886784421
0.00986608214383214
0.00975526181659317
0.00957191644692849
0.00597928383761226
0.00597996531920367
0.00598045911512395
0.00598093359037859
0.00598152416221078
0.00598235832362065
0.00598357955972613
0.00598533273959342
0.00598775798700261
0.00599099201915428
0.00599517102809944
0.00600043591520193
0.00600694003046705
0.00601485892045779
0.00602440344888595
0.00603583551503922
0.00604949492180534
0.00606582839196996
0.00608545940261734
0.00610929356806393
0.00613855116446692
0.00617590699821376
0.00622495920927819
0.00628816414332256
0.00636678111946927
0.00646067220133853
0.00656866060884549
0.00668778390749512
0.00681415840199948
0.00694403666446198
0.00707291097265617
0.00719755324964716
0.00731565400878604
0.00742538225042839
0.00752454664426515
0.00761348604897101
0.00769267480075265
0.00776133990254328
0.00782238066162939
0.00787644631280582
0.00792721584453951
0.00796561403859401
0.00799300735536514
0.0080024914801262
0.00798757882553862
0.00794579711522805
0.00787618375618425
0.00777547250998198
0.00764366257938136
0.00747723999856496
0.00727756810292016
0.00705102346002479
0.00680220752994586
0.00654757732879846
0.00630722635236738
0.00610693294946518
0.0059684642162657
0.00591695716343003
0.00598233100692545
0.00619679215049499
0.00659198621039102
0.0071924323297008
0.00800543035215931
0.00902244038489664
0.0102054004630174
0.0115133909488648
0.0128953140525741
0.01430714592378
0.0156940466570172
0.0170281569175292
0.0182663438166403
0.0193814324702883
0.0203404623288843
0.0211115872700209
0.0216779261646675
0.0220304155517796
0.0221858298506291
0.0221407353446093
0.0219589824554188
0.0216856044864796
0.0213349147329396
0.0209630235977293
0.0205987619669805
0.0202585596392163
0.0199467522313875
0.0197014404428434
0.0194912846477006
0.0193293631984274
0.019216344051033
0.0191358896730243
0.0191048645337948
0.0191006511137106
0.01912178838674
0.0191655778803829
0.0192271126485337
0.0193045082507667
0.019390453629335
0.0194785200563767
0.0195700972669859
0.0196599216393695
0.0197438804942056
0.0198268331956324
0.0198798519026748
0.0198320960865834
0.0196711909042926
0.0194220867542625
0.0191129296561439
0.0187659036412398
0.0183966114082594
0.018015738426157
0.0176306495398874
0.0172464906634557
0.0168668925514563
0.0164944154426049
0.0161308580055037
0.0157774485963563
0.0154349914915615
0.015103973917833
0.0147846352500773
0.0144770444273034
0.0141811226535642
0.0138966988656061
0.0136235250018999
0.0133613005372366
0.013109692383027
0.0128683377342089
0.0126368665908801
0.0124148974519591
0.012202055247383
0.0119979593953616
0.0118022538351195
0.0116145546540702
0.0114345696930192
0.0112618633288321
0.0110963261795163
0.0109372079127669
0.0107854235083301
0.0106362021608891
0.0105103904044686
0.0103006675753537
0.00597477693387879
0.00597555127755417
0.00597619469484822
0.00597683466177765
0.00597757322925624
0.00597850740622014
0.00597975342221216
0.0059814381525203
0.00598369424660389
0.00598666011792061
0.00599048088796273
0.00599531148827156
0.00600132249348412
0.00600870847779529
0.00601770023683378
0.00602858025929004
0.00604170940424474
0.0060575572907746
0.00607677118555614
0.00610027974851316
0.00612934942467508
0.00616650774742141
0.00621487930647142
0.00627659732264087
0.00635292540684838
0.00644420599214385
0.00655016939654992
0.00666906938879713
0.00679836773186218
0.00693503234234334
0.007075012323071
0.00721501906794438
0.00735220440473774
0.00748401278524125
0.00760763704144436
0.00772265704608718
0.0078283659316491
0.00792390699666121
0.00801094791222435
0.00809005411969889
0.00816342036647523
0.00822319611047971
0.00827009361777728
0.00829770551187355
0.00829989081152664
0.00827416606023942
0.00821933775526247
0.0081321563654647
0.00801226457461712
0.00785611792397564
0.00766447756243876
0.00744279786217146
0.00719441784685647
0.00693266038631763
0.00667312242267016
0.00643563764899164
0.00623495864679336
0.00608703008167305
0.00601174722277521
0.00603278324714311
0.00617860833486709
0.00648111092736464
0.00696893894801578
0.00766596910409934
0.0085736113282962
0.00968367119834744
0.0109677364888763
0.0123889545032836
0.0138865656384279
0.0154227461373151