/*--------------------------------*- C++ -*----------------------------------*\
| =========                 |                                                 |
| \\      /  F ield         | OpenFOAM: The Open Source CFD Toolbox           |
|  \\    /   O peration     | Version:  3.0.1                                 |
|   \\  /    A nd           | Web:      www.OpenFOAM.org                      |
|    \\/     M anipulation  |                                                 |
\*---------------------------------------------------------------------------*/
FoamFile
{
    version     2.0;
    format      ascii;
    class       volScalarField;
    location    "7000";
    object      nut;
}
// * * * * * * * * * * * * * * * * * * * * * * * * * * * * * * * * * * * * * //

dimensions      [0 2 -1 0 0 0 0];

internalField   nonuniform List<scalar> 
14000
(
4.43026935182792e-07
4.42577526111994e-07
4.39142308477512e-07
4.3539900193244e-07
4.3160660606995e-07
4.27252591896672e-07
4.22340675641311e-07
4.16876941800633e-07
4.10781373644637e-07
4.03972504245437e-07
3.96363287009398e-07
3.87850455042809e-07
3.78315614724999e-07
3.67624531142073e-07
3.55623717863113e-07
3.42139037381591e-07
3.269686751557e-07
3.0988539167569e-07
2.90603418895124e-07
2.68851337533719e-07
2.43918019213389e-07
2.15799710661329e-07
1.91201205669785e-07
1.74013813942954e-07
1.63166459139091e-07
1.57757546290163e-07
1.56713805686331e-07
1.61311408953793e-07
1.69796069931651e-07
1.83598453631944e-07
2.02889835109332e-07
2.25795272650584e-07
2.53845359943107e-07
2.87635820158133e-07
3.26562195172319e-07
3.66954507832069e-07
4.15481818439776e-07
4.64120522872063e-07
5.1858630228165e-07
5.74157709320512e-07
6.44229312197492e-07
7.16012069052401e-07
7.86013283863183e-07
8.57879877292038e-07
9.17398383301361e-07
9.60064988181103e-07
9.89895466959623e-07
9.99765444463201e-07
9.87047416584158e-07
9.46870305345206e-07
8.7291470393794e-07
7.80020434079195e-07
6.67371647006503e-07
5.50667294377571e-07
4.48211075348979e-07
3.69476915638554e-07
3.11198737022027e-07
2.63589274842733e-07
2.25200965284382e-07
1.94180851234968e-07
1.67731407751778e-07
1.44585449843434e-07
1.2450842963547e-07
1.05746834784948e-07
8.9402740137672e-08
7.4250153203039e-08
5.98830765181138e-08
4.65678305976187e-08
3.60103684340233e-08
2.65526363833941e-08
1.92558956077952e-08
1.36500324440317e-08
1.10938396748604e-08
1.33120163371798e-08
1.63019604607746e-08
1.91793631205515e-08
2.19925510252348e-08
2.44594082314119e-08
2.74279757117307e-08
2.93051610142399e-08
3.12715124526093e-08
3.31881808998294e-08
3.45866619495341e-08
3.57243488197688e-08
3.67434619090993e-08
3.74337120066687e-08
3.7384725773623e-08
3.75689357352603e-08
3.68653001873375e-08
3.60752488613343e-08
3.48877128010158e-08
3.30796418229043e-08
3.12598239980325e-08
2.90447742902497e-08
2.67419724796542e-08
2.6972447749985e-08
3.52090366122128e-08
4.58435522320961e-08
5.99173495352105e-08
7.81659161447902e-08
1.01527620745832e-07
1.32591678850525e-07
1.73688714807869e-07
2.12823545512361e-07
2.42897015027063e-07
2.67978825349372e-07
2.90082125795316e-07
3.09661199887261e-07
3.27048870335541e-07
3.42425880317784e-07
3.55957075820391e-07
3.6781726632628e-07
3.78180751970797e-07
3.87217119717847e-07
3.95086604141093e-07
4.01936417947804e-07
4.07899938318148e-07
4.13096030082452e-07
4.1763012992927e-07
4.21594847204215e-07
4.25071268785971e-07
4.28130488238027e-07
4.30833905774566e-07
4.332361274236e-07
4.35383056274589e-07
4.37318178111587e-07
4.39073630529516e-07
4.40690412195019e-07
4.42180332805716e-07
4.43606265262064e-07
4.4492041683679e-07
4.46300277007538e-07
4.47460464210223e-07
4.49080700122907e-07
4.4985969171069e-07
4.52643185611565e-07
4.51742155361513e-07
4.59185818784258e-07
4.51595181348349e-07
4.68232888718556e-07
5.2924136610128e-06
5.27618546255781e-06
5.26131069373536e-06
5.25022190930584e-06
5.23819869598761e-06
5.22389465736526e-06
5.20721719947811e-06
5.1876601793116e-06
5.16466800603706e-06
5.1377282409381e-06
5.10627878128948e-06
5.06968582204057e-06
5.02722797046489e-06
4.97806563803358e-06
4.9212016396007e-06
4.85543383005247e-06
4.77928369297518e-06
4.69085338629982e-06
4.58775302135129e-06
4.46637573238136e-06
4.31904695776918e-06
4.16707602136111e-06
4.07209673470581e-06
4.01771517013045e-06
3.98066337912243e-06
3.94853852934672e-06
3.91126780985637e-06
3.88657796768483e-06
3.85632308272185e-06
3.85009167957011e-06
3.82997103668581e-06
3.79301977630882e-06
3.75148218518644e-06
3.69727744860622e-06
3.62016535683337e-06
3.51907850556393e-06
3.42870235943213e-06
3.29753461447824e-06
3.18808342493922e-06
3.06060044904612e-06
2.98277283126443e-06
2.87212566004258e-06
2.78656159056201e-06
2.70511083018343e-06
2.62377887940206e-06
2.54779626143849e-06
2.4840140677362e-06
2.41813966715706e-06
2.35143769458832e-06
2.27330627235358e-06
2.18121898523799e-06
2.08712272372937e-06
1.98168896967013e-06
1.89796759547265e-06
1.85250914266051e-06
1.86161068889756e-06
1.90027225864484e-06
1.95322425332692e-06
2.01673464302901e-06
2.0805959268788e-06
2.13772912664593e-06
2.18670870324196e-06
2.22469019369525e-06
2.24792027580805e-06
2.26588009082787e-06
2.26031456592409e-06
2.24042884025433e-06
2.20750062197384e-06
2.17202547948573e-06
2.10319454223734e-06
2.04188321865806e-06
1.95967206418344e-06
1.90356992756282e-06
1.82336097320763e-06
1.77034349999842e-06
1.71638196884673e-06
1.68796720070575e-06
1.64842432235234e-06
1.64777147416423e-06
1.66699610045898e-06
1.68079253437926e-06
1.73549826516338e-06
1.79977602991139e-06
1.88893076852115e-06
1.99089315908266e-06
2.14995638968818e-06
2.29525824222748e-06
2.48323109903371e-06
2.70056390140764e-06
2.92110371447596e-06
3.20813647488338e-06
3.48380820138678e-06
3.80050438259804e-06
4.14012790896801e-06
4.50179745236622e-06
4.89226552296867e-06
5.30001667407289e-06
5.71433510511317e-06
6.15897958015317e-06
6.60665796894566e-06
7.07407934757758e-06
7.60489481410901e-06
8.0865811190982e-06
8.21423212174958e-06
8.15959650830825e-06
8.05100164982235e-06
7.93068470100851e-06
7.81199655946571e-06
7.69656316325322e-06
7.58450926026082e-06
7.47619234726692e-06
7.37212169179721e-06
7.27279761545257e-06
7.17857464934514e-06
7.08964004868276e-06
7.00602072398589e-06
6.927627398645e-06
6.85428602596765e-06
6.78576802407072e-06
6.72181929732669e-06
6.66216596147249e-06
6.606539798434e-06
6.55467261587206e-06
6.50631573017842e-06
6.46122691849271e-06
6.4191965435862e-06
6.38000676748751e-06
6.34351578838798e-06
6.30949132477963e-06
6.27795086066809e-06
6.24847804473589e-06
6.22161892184037e-06
6.19606208471249e-06
6.17443461760618e-06
6.15143495365808e-06
6.13868032376014e-06
6.11198795284603e-06
6.12875491981192e-06
6.05000228299443e-06
6.19632654388012e-06
5.43623748283611e-05
5.43247401338318e-05
5.42804425356884e-05
5.42462847020079e-05
5.42169339742373e-05
5.41868416718303e-05
5.41527987442421e-05
5.41117113590107e-05
5.40606025180129e-05
5.39966872262286e-05
5.39171661146916e-05
5.38190725575243e-05
5.36991345723012e-05
5.35535939137134e-05
5.33779855262065e-05
5.31668158585708e-05
5.29132055620101e-05
5.26079348516933e-05
5.22390878236103e-05
5.17894210913137e-05
5.12178674999688e-05
5.05827207917279e-05
5.01127277537526e-05
4.9829646575446e-05
4.96448643631097e-05
4.94657995662085e-05
4.91709981695964e-05
4.90956394361139e-05
4.9019523884684e-05
4.90476675868688e-05
4.8864256885794e-05
4.83892394611639e-05
4.77062103907139e-05
4.6762872791889e-05
4.54521303835024e-05
4.37757313629398e-05
4.20156936053205e-05
3.97928157879884e-05
3.76026681821176e-05
3.51861932662051e-05
3.3077314966661e-05
3.06076675192536e-05
2.82923145717918e-05
2.59880031956826e-05
2.3746500316154e-05
2.1711752180194e-05
1.99786732471784e-05
1.84871183266693e-05
1.7327507527574e-05
1.65206933203236e-05
1.60495284152504e-05
1.59099960519207e-05
1.60666917467692e-05
1.65976594174508e-05
1.75089950489542e-05
1.87934517384057e-05
2.02971164888612e-05
2.19191764172724e-05
2.35962255558371e-05
2.52429009683717e-05
2.67972283535713e-05
2.82383237277517e-05
2.95352683832552e-05
3.06800835754106e-05
3.17100656419518e-05
3.25330143013942e-05
3.31707590771843e-05
3.3658661750286e-05
3.4020912799207e-05
3.406737388934e-05
3.40077253445233e-05
3.37067315692331e-05
3.34849601873944e-05
3.29706631235095e-05
3.25929216678661e-05
3.22102733890693e-05
3.20611147384134e-05
3.17971129916437e-05
3.19988648821623e-05
3.24978321981061e-05
3.29948750832343e-05
3.4014255078351e-05
3.5264841528438e-05
3.68487869204063e-05
3.87157057325002e-05
4.15415940577439e-05
4.41014916222393e-05
4.72810886558751e-05
5.08708026197047e-05
5.4420312694923e-05
5.88487572638154e-05
6.30135446882758e-05
6.75724945158114e-05
7.22952254635157e-05
7.7114662388692e-05
8.20632458284796e-05
8.69197107375831e-05
9.15811774196735e-05
9.62912680338274e-05
0.000100744904281983
0.00010506303247808
0.000109678592300812
0.000113458154290225
0.000113498915859113
0.000111280242872945
0.000108306193782081
0.000105209010735668
0.000102202273990227
9.93319531290627e-05
9.66078694999176e-05
9.40346062054913e-05
9.16150741224036e-05
8.93501008275509e-05
8.72378393195809e-05
8.52740520621975e-05
8.34525523551273e-05
8.17658605979185e-05
8.02057543808027e-05
7.87636501413994e-05
7.74310291100324e-05
7.61995162947149e-05
7.50611607647167e-05
7.40084282621022e-05
7.30343157827787e-05
7.21323195786264e-05
7.1296504789179e-05
7.05213528012156e-05
6.98020673890196e-05
6.91338749302403e-05
6.85133827021914e-05
6.79358080590416e-05
6.74004870213624e-05
6.68998807412363e-05
6.64419323485789e-05
6.60045031754568e-05
6.56318611634468e-05
6.52242051686037e-05
6.50302318281287e-05
6.44583872130106e-05
6.48653798025597e-05
0.000145476773576313
0.000145378654592064
0.000145252073008005
0.000145131508098407
0.000145022284009471
0.000144924744498815
0.000144836542464337
0.000144752824178848
0.000144668084590383
0.000144576768176334
0.000144473234400313
0.000144351676711145
0.000144205952833171
0.000144029304484493
0.000143813993829021
0.000143550734706953
0.000143228084157196
0.000142830706783048
0.000142338571029401
0.000141723342503311
0.000140908751126724
0.000140033215133683
0.000139658490571652
0.00013998429518533
0.000140921386063372
0.000142241379799828
0.000143633965588669
0.00014525586062248
0.00014689618533745
0.000148668551364746
0.00014999832465476
0.000150586979689293
0.000150485317831548
0.000149573758517665
0.00014757253953478
0.000144361372000151
0.000140532514338362
0.000135252039362663
0.000129556358762417
0.000122897724115506
0.000116657616731446
0.000109203074173404
0.000101656082339489
9.37068686009825e-05
8.5457691685479e-05
7.73593351758883e-05
6.98665066717883e-05
6.30002915013098e-05
5.70335115506958e-05
5.21075409677777e-05
4.8314722422228e-05
4.57759567904261e-05
4.44406869509401e-05
4.45710278829316e-05
4.62307720050656e-05
4.94171345157008e-05
5.37374738191884e-05
5.88408560452654e-05
6.44560607547522e-05
7.02927333121492e-05
7.61217338743686e-05
8.1829112768628e-05
8.7306074396437e-05
9.25128778776251e-05
9.75313253133369e-05
0.00010216734107855
0.000106464002033117
0.000110561679577924
0.000114563107985054
0.000118045444127835
0.000121447397047432
0.000124497211482767
0.00012787722874159
0.000130622958052344
0.000133611010298997
0.00013652542471835
0.000139893784548077
0.000142711066713089
0.00014661762436993
0.000151289455225546
0.000155742640679477
0.000161546179596569
0.000168002017331868
0.000175263746935516
0.000183215152197539
0.000193857164987605
0.000203649264424476
0.000214842844454377
0.000227008773034629
0.000238772699900996
0.000252535015089754
0.000265372194811955
0.000278713166486088
0.00029214792133186
0.000305429200002062
0.000318641023135096
0.000331247091085855
0.000342970435809659
0.000354425975753693
0.000364980827185351
0.000374855065343518
0.000385182889670667
0.00039351748025154
0.000392649291785407
0.000384920436037777
0.000374148243165791
0.000362452859928708
0.000350735682625907
0.000339309652756749
0.000328297630963851
0.000317763294404477
0.000307745347795871
0.000298266120934047
0.000289334084308801
0.000280946577508589
0.000273091974275609
0.000265752146131266
0.000258904561881317
0.000252523728182732
0.0002465829096747
0.000241054563422131
0.00023591153348068
0.00023112724648159
0.000226676216744798
0.000222534206316081
0.00021867841406277
0.000215087353209225
0.000211741486232068
0.000208621838020687
0.000205712839677195
0.000202996562760094
0.000200464124924185
0.000198093099098631
0.000195893247135147
0.000193813555024673
0.000191938623594919
0.00019006389872857
0.000188664915163922
0.000186689390609685
0.000186024034667432
0.00025444943140009
0.000254288993410994
0.000254050162482643
0.000253782373332733
0.000253504045796655
0.000253226722565872
0.000252956021611887
0.000252691087958403
0.000252427340022063
0.000252158060846388
0.00025187499400454
0.000251568637442979
0.000251228246732249
0.000250841557527578
0.000250394282630999
0.000249869229170744
0.000249245231984056
0.000248494457832142
0.00024758010840768
0.000246453348735049
0.000244984057662035
0.000243338084846621
0.000242435003416606
0.000242809586796837
0.000244573422744143
0.000247529788755232
0.000251305642823982
0.000255754357944415
0.000260513578974668
0.000265729755693997
0.000270693510893417
0.000274872826255509
0.000278144016267032
0.00028025583047924
0.000280733258499357
0.000279213714791589
0.000276373266965343
0.000270999439808203
0.000264370731928457
0.000255662364635938
0.000247005812465203
0.000235955922799101
0.000223962393049018
0.000210437071858983
0.000195296182274451
0.000179124593123884
0.000162821033282318
0.00014661094138612
0.000131230883446696
0.000116946054353112
0.000104365311726898
9.40723525660164e-05
8.61512517127703e-05
8.13422278308374e-05
7.98984382658803e-05
8.18941227247377e-05
8.67135846257441e-05
9.3722993363964e-05
0.0001023789034
0.000112125081492109
0.000122478794025982
0.000133120185541906
0.000143779242817248
0.000154293473516114
0.00016471550966037
0.0001747702951763
0.000184456387195446
0.000193967375386079
0.000203570340825783
0.000212732987422234
0.000222089996194054
0.000231368674497093
0.000241657755813365
0.000251645281213747
0.000262392603200695
0.000273470803299991
0.000285542413507315
0.000296917905478925
0.000309779214331051
0.000323962708649968
0.000337567074740709
0.000352920845004672
0.000369163478425359
0.00038637808314098
0.000404184669597949
0.000425837786133687
0.000446275564041768
0.000468250499670195
0.000491597384072893
0.000514102544983376
0.000539215902096223
0.000562977240253266
0.000587001814713228
0.000610977569063267
0.000634499346813234
0.000657690657905681
0.000679804408894019
0.000700363013338144
0.000720247229050192
0.000738674258044239
0.000755850436384794
0.000773522717916264
0.00078843634042898
0.000789628974765249
0.000778751929031194
0.000761238145825201
0.000740855914165134
0.000719531801416609
0.00069810908875262
0.000676984597926524
0.000656379626871217
0.000636436047962803
0.000617249432062356
0.000598881419258859
0.000581367766570635
0.000564723351931363
0.000548947056988693
0.000534025796595848
0.000519937266468865
0.00050665340219678
0.000494141285726578
0.000482365741628426
0.000471289933485296
0.000460876590729659
0.000451088673521427
0.000441889847884963
0.000433244761517901
0.000425120099146069
0.000417482836114421
0.000410304571331387
0.000403553171312039
0.000397209760261192
0.000391235541828233
0.00038563944305024
0.000380340827387755
0.000375459531974419
0.00037069706248957
0.000366697861793729
0.000362228343134143
0.000358487114889366
0.00037489491630331
0.000374689034152907
0.000374350890796114
0.000373933157284163
0.000373461440711009
0.000372955037025352
0.000372427290783029
0.000371883671547515
0.000371323630019638
0.000370742076533373
0.000370130178469286
0.000369475899890627
0.000368764184091593
0.000367976730160909
0.000367091395335617
0.00036608102783912
0.000364911917012852
0.00036354021037648
0.000361907778329856
0.000359940586522135
0.000357454262573621
0.000354592400559446
0.000352507375367129
0.000352057256882921
0.000353650750639459
0.000357280615284019
0.00036267279037143
0.00036959313120392
0.000377394848900743
0.000386266269984282
0.000395416349325669
0.000404175242280463
0.000412247522875466
0.00041923342840312
0.000424482552089202
0.000427409012610485
0.00042858202978703
0.000426545401805429
0.000422539474293941
0.000415533708749357
0.00040802733956347
0.000397129513058896
0.000384332607646192
0.000368733207976071
0.000349840625082088
0.000328001061084037
0.000304208617513417
0.000278641656226076
0.000252391269648907
0.000225610182680591
0.00019958613692237
0.000175674857824251
0.000154377820474168
0.00013763396014962
0.00012651258856313
0.00012163337370818
0.000122205924463366
0.000127249584308457
0.000135869596304205
0.00014717607181453
0.000160368606256018
0.000174833758373933
0.000190049430383405
0.000205638163211011
0.000221503006387994
0.000237273473696159
0.000252835081895893
0.000268334597380414
0.000284119039985882
0.000299675478725127
0.000315701456179289
0.000332013351299762
0.000349977707696504
0.00036832552729257
0.0003881427443353
0.000409031110269369
0.000431728341645546
0.000454150182274418
0.000478472327970343
0.000504819885406538
0.000530629753724758
0.000558374812524518
0.000587248503314599
0.0006172100998475
0.000647502128212711
0.000682043911212364
0.00071540145986601
0.000750061864475528
0.000786260872724877
0.000821330568241932
0.000859110346962534
0.000895394197417143
0.000931559605016681
0.000967462758880955
0.00100262295671344
0.00103716907120915
0.00107024708664185
0.00110121103215931
0.00113104390088725
0.00115894896468991
0.00118505813499129
0.00121148629788833
0.00123460574880862
0.0012410628589331
0.00123109696001523
0.00121073027553058
0.00118493873610601
0.00115664285581192
0.00112731969440643
0.00109773949926158
0.00106835083941016
0.00103944599870683
0.00101122840007287
0.000983841036252869
0.000957382932663443
0.000931918434309513
0.000907485116489645
0.000884099952750064
0.000861763424488884
0.00084046469716853
0.000820182928867425
0.000800891247546276
0.000782557696463902
0.0007651471627132
0.000748622587542988
0.000732945658637192
0.000718077676770743
0.000703980824586943
0.000690616573841615
0.000677950729714378
0.000665944168564128
0.000654572333262072
0.000643787776647909
0.000633597480053179
0.000623905946241611
0.000614848263553381
0.000606088106311251
0.000598303614475211
0.00059049249558494
0.000581864964210902
0.000503956478796069
0.000503723584022704
0.000503314203494593
0.000502775157265684
0.00050213242894031
0.000501407310874316
0.000500616431565226
0.000499769241652175
0.000498868787494759
0.000497912395109836
0.000496892021843692
0.000495794577879726
0.000494602010529493
0.00049329099715986
0.000491832203749431
0.000490188849214058
0.000488314713020084
0.000486149856820355
0.000483614787467669
0.000480610401798134
0.000476907027375813
0.000472607453263419
0.000468975454632608
0.000467091819911599
0.000467638836330165
0.000470858670623308
0.000476678791874989
0.000484952250016549
0.000494947026481448
0.000506728300701462
0.000519529131831727
0.000532615230340597
0.000545567331171846
0.000557861850296384
0.000568709192612802
0.000577360500823557
0.000584208921100013
0.000587661561264131
0.00058878877241093
0.000586436649383297
0.000583153694737689
0.000575884580892354
0.000566013219571073
0.000552393446235945
0.000534115791780746
0.000511122501830967
0.000484189268227945
0.000453171465860577
0.000419120111999801
0.000381792026118458
0.00034242721699174
0.000303099558563165
0.0002644449867135
0.000229734515643313
0.000201557186786976
0.000182274042771656
0.000171673336110932
0.0001687491622932
0.000172307062452305
0.000181042259234758
0.000193745102240606
0.000209422181484361
0.000227209696307304
0.000246427244293044
0.000266714833733597
0.000287546832836391
0.000308638181125948
0.000330001554766704
0.000351931848507
0.000373981119128457
0.000396789182612523
0.000420271888728998
0.000445880719677102
0.000472627257428797
0.000501552309639168
0.000532385564593723
0.000565902817546636
0.000599965422471654
0.000636432104331575
0.000675655678455922
0.000714844638642778
0.000756143360676034
0.000798885941558271
0.000842898885086244
0.000887106939616294
0.000935462394233917
0.000982912648094272
0.00103135672739275
0.00108130322375373
0.00112999503622444
0.00118116318474911
0.0012308396651925
0.00128000402260369
0.00132863067641376
0.00137622736331221
0.00142290569310524
0.00146777802253933
0.00151008392952323
0.00155078254414066
0.00158912833860103
0.00162516176961552
0.00166112954714479
0.00169329831451989
0.001707184404282
0.00170156322264327
0.00168228295630731
0.00165494479900478
0.00162322238282219
0.00158918770496149
0.0015540120078708
0.00151840661209161
0.0014828426216988
0.00144765251753917
0.00141307728822521
0.00137929327269518
0.00134642696284527
0.00131456654696938
0.00128377050396484
0.00125407326430944
0.00122549209160684
0.00119802888868802
0.00117167547735525
0.00114641490868931
0.00112222404049725
0.00109907528439111
0.00107693744118009
0.00105577723136666
0.00103556054409956
0.00101625141176289
0.000997816902827858
0.00098021863065295
0.000963431402062627
0.000947408161940996
0.000932153572000964
0.000917574660884874
0.000903800530594778
0.00089051814918794
0.000878307071088559
0.000866745928824573
0.000852108979389911
0.000640018326373964
0.000639770481006688
0.00063931323184401
0.000638684450187035
0.000637906371479592
0.000636997914631695
0.000635974592423902
0.0006348459861098
0.000633615943980171
0.00063228261130382
0.000630838176746982
0.000629268692545616
0.000627553783542151
0.000625666044172225
0.000623570017839278
0.000621220437425197
0.000618559791571809
0.000615513485240807
0.000611982573699292
0.000607845008068202
0.000602834592490025
0.000597013795777036
0.000591689650178762
0.000588069396255854
0.000587031317368762
0.000589043254016964
0.000594259964566136
0.000602714389056127
0.000613743972376022
0.000627342201829198
0.000642795830568891
0.000659336838551148
0.000676481236096409
0.000693625576992398
0.000709881490124264
0.000724391650825012
0.000737375267460337
0.00074716843980743
0.000754640588354395
0.000758572649394477
0.000761387978391187
0.000760008731922368
0.000755647314363115
0.000746992920851893
0.000732798274666348
0.000712616126914679
0.000686892458369572
0.000655084670227734
0.000617961881245472
0.000574785059517624
0.000526177247125988
0.000474547903907538
0.000420205982200518
0.000366983237950366
0.00031846597711053
0.000279105251190082
0.000250284911841547
0.000232048820825204
0.000223683900317963
0.000223820691294731
0.000230921885245034
0.000243581357798704
0.000260508660447668
0.000280622060051099
0.000303195721526291
0.000327446502015809
0.000352851931756641
0.000379215967978754
0.000406664363182718
0.000434779422826923
0.00046405855515245
0.000494471758329541
0.000527389187371782
0.000562159045935112
0.000599755433959306
0.00064006870845594
0.000683888336363521
0.000729264542148014
0.000777637856073311
0.000829468345827978
0.000882072910829422
0.000937055130005551
0.000993868073365017
0.00105221967062897
0.00111082396946939
0.00117324496461416
0.00123513291048144
0.00129776059650265
0.00136172684460053
0.0014244206154795
0.00148917403719683
0.00155248556414463
0.00161493138124598
0.00167652862864833
0.00173680485283905
0.00179584188723557
0.00185276713690359
0.00190675970140871
0.00195867560740748
0.00200784144197132
0.00205420821705612
0.00209996893008282
0.0021414435894418
0.00216399903305988
0.0021652108032641
0.0021503009812237
0.00212497459859775
0.00209334024688472
0.00205793249895958
0.00202028807097446
0.00198138155759246
0.00194187259568134
0.00190223310196775
0.00186281143994936
0.00182386966763033
0.00178560425849399
0.001748161490835
0.001711648567957
0.00167614094461107
0.00164169083734945
0.00160832966469085
0.00157607452520616
0.00154492993762251
0.00151489103772553
0.0014859458629588
0.00145807632412167
0.00143126042314186
0.00140547335867295
0.00138068733620719
0.00135687571554548
0.00133400647482445
0.00131205758177046
0.00129098920228049
0.00127080353906553
0.00125142355355231
0.0012329560623506
0.00121515763615082
0.00119841462577429
0.00118310241617773
0.00116208059593111
0.000782061882725959
0.000781806505532484
0.000781317327726757
0.000780623708441742
0.000779742976218487
0.000778689673220312
0.000777475602401852
0.000776107542237025
0.00077458727041454
0.000772911323722343
0.000771070360325541
0.000769048526092318
0.000766822724422185
0.000764361610431481
0.000761624189152184
0.000758557668663776
0.00075509456463682
0.000751147374898115
0.000746600131051986
0.000741310709949984
0.000734983401324509
0.00072764604374777
0.000720617983003593
0.00071517103171111
0.000712304110353317
0.000712651088228629
0.000716564916733145
0.000724279881491302
0.0007352817731793
0.000749616227372916
0.000766600051015134
0.000785503038349377
0.000805825039879709
0.000826923443565869
0.00084784948757078
0.000867680481064328
0.000886493140314452
0.000902590491985333
0.00091665794661944
0.00092744600056763
0.000937184479249403
0.00094282730218773
0.000945396343146235
0.000943464214392123
0.000935527131489333
0.000920815172169198
0.000899441182266402
0.000870495019401639
0.000834385486941691
0.000789920551973279
0.000737035139612128
0.000677981444272244
0.000612709600610874
0.000545075750612627
0.0004788391390664
0.000419537946772983
0.000369813737814244
0.000331161108485902
0.00030431397654112
0.000288857833280212
0.000283666553195285
0.000287335729755927
0.000298295487487891
0.000315049098586319
0.000336443869085063
0.000361307888775692
0.000388791029620964
0.000418408360650902
0.000450016884786209
0.000483142931105361
0.000518075743576918
0.000554766904850735
0.000594379120198933
0.000636535967750681
0.000682123113359854
0.000731174048823207
0.000784466966710917
0.00084036941595092
0.000899924586500599
0.000963592643416637
0.00102898655849033
0.00109714732110424
0.00116758299982636
0.00123990014846798
0.00131270216946335
0.00138893961600658
0.00146502699094191
0.00154168967508745
0.00161947119267654
0.00169602063898572
0.00177413546828632
0.00185084835845341
0.00192639429024031
0.00200077125613398
0.00207353406305406
0.00214472696679247
0.00221352300268701
0.00227908661387832
0.00234212912427292
0.00240204799975495
0.00245871331453646
0.00251413333508054
0.0025647783255754
0.00259657232267344
0.00260626248270916
0.00259823608536953
0.00257791023654768
0.00254951506835012
0.00251586861182947
0.00247879074846313
0.00243948743605661
0.00239879664561798
0.00235732799013291
0.0023155387847614
0.00227377977603747
0.00223232117885528
0.00219137159326457
0.00215109144907602
0.00211160193038533
0.00207299490894286
0.00203533609204719
0.00199867252987877
0.00196303482716589
0.00192844091367725
0.00189489884553835
0.00186240793489268
0.0018309616289334
0.00180054843705232
0.00177115270218794
0.00174275769249372
0.00171534167739858
0.00168888864184172
0.0016633705506316
0.00163878753626454
0.00161508705974326
0.00159234371595834
0.0015704118678583
0.00154943194766204
0.00153066289917057
0.0015034814463218
0.000929384818390895
0.000929126897866475
0.000928616462357831
0.000927875831535776
0.000926917919570742
0.000925752667196718
0.000924387332262752
0.00092282451671138
0.000921062167471769
0.000919093316450534
0.000916905323569666
0.000914478991337453
0.000911787510551444
0.000908795095589232
0.000905455204454207
0.000901708001210417
0.000897477008024135
0.000892663362192466
0.000887136380589849
0.000880736842722297
0.00087314529019422
0.000864360453703047
0.00085570020374866
0.000848467606066014
0.000843729653157463
0.000842227277251297
0.000844460244261767
0.000850840532919188
0.000861020393045152
0.000875172594097837
0.00089267130023022
0.000912875051444055
0.00093530244500753
0.000959313723266006
0.000983937871213384
0.00100822249683294
0.0010321425001816
0.0010539909334931
0.00107430440141396
0.00109182294799491
0.00110857468000868
0.00112155809989617
0.00113160843211429
0.00113720612662335
0.00113665080702744
0.0011289154386341
0.0011138131439027
0.00109012192417306
0.00105788936813017
0.00101553919741542
0.000962456100410877
0.000900434547279232
0.000829131488359499
0.000752275269914022
0.000673552687160554
0.000598823995457088
0.000531096597081567
0.00047249381334671
0.000424877425794139
0.000389175085596993
0.000365520798460954
0.000353468406922179
0.000351926612678289
0.000359412122796643
0.000374564381590872
0.000395786054382143
0.000421832403558905
0.00045184617640622
0.000485322425096158
0.000521605936915175
0.000560712638275947
0.000602487178741268
0.000647789564673319
0.00069639821035674
0.0007490674772625
0.000805918829776084
0.000867681262571493
0.000933074749704626
0.00100281126031581
0.00107727771663648
0.00115445408992801
0.00123489066493009
0.0013180904586612
0.00140357065524435
0.00148989923119246
0.00157933999930655
0.00166897626238123
0.00175911544380664
0.00185015050070706
0.00194002146023517
0.0020309524998135
0.0021204897374161
0.00220860701502236
0.00229524457265917
0.0023799793645754
0.00246281205937692
0.00254297833153557
0.00261966312519676
0.00269341800285613
0.00276370113118215
0.00283031159417165
0.00289498996345928
0.00295441789092875
0.00299555375241296
0.00301468749716453
0.00301532777250597
0.00300235040109547
0.00297984389690362
0.00295072221313085
0.00291697922775319
0.00287999522936883
0.00284075800677079
0.00280000070187029
0.00275828265879723
0.00271604022715045
0.00267361660421767
0.00263128343961961
0.0025892560923806
0.00254770388702328
0.00250676112816016
0.00246653093493306
0.00242709353539756
0.00238850893950698
0.00235082120118173
0.00231406167812942
0.00227825033861721
0.00224339922769219
0.00220951322837851
0.00217659180436671
0.00214463093122148
0.00211362202517275
0.00208355744667921
0.00205442394833619
0.00202622064541369
0.00199892420480625
0.00197257270140853
0.00194713132087712
0.0019224765531231
0.00190073794899542
0.0018680475681665
0.00108145917254209
0.00108120252528312
0.00108067847137793
0.00107990365265118
0.0010788875607434
0.001077636184358
0.00107615248694205
0.00107443473816735
0.00107247650004963