/*--------------------------------*- C++ -*----------------------------------*\
| =========                 |                                                 |
| \\      /  F ield         | OpenFOAM: The Open Source CFD Toolbox           |
|  \\    /   O peration     | Version:  3.0.1                                 |
|   \\  /    A nd           | Web:      www.OpenFOAM.org                      |
|    \\/     M anipulation  |                                                 |
\*---------------------------------------------------------------------------*/
FoamFile
{
    version     2.0;
    format      ascii;
    class       volScalarField;
    location    "7000";
    object      omega;
}
// * * * * * * * * * * * * * * * * * * * * * * * * * * * * * * * * * * * * * //

dimensions      [0 0 -1 0 0 0 0];

internalField   nonuniform List<scalar> 
14000
(
583.977261635923
583.976851671857
583.973719140589
583.970305545144
583.966847168462
583.962876885321
583.958397641246
583.953415128733
583.947857179952
583.941648140314
583.934709374937
583.926946951128
583.918253634474
583.908503723298
583.897570860221
583.885258370604
583.871435649852
583.855858562659
583.838280916581
583.818448596031
583.795712511057
583.782776529079
583.874293023459
584.279604017759
585.231411062339
586.983157599209
589.809565687633
594.02473161971
599.931417227824
607.936852620199
618.397898306234
631.743790935909
648.521716125731
669.284799619914
694.596917200769
725.168713437035
762.105613054512
805.769960145109
858.074868650937
919.491946718439
992.570309603879
1075.24520007638
1169.71399171662
1273.43693930744
1384.59713082468
1501.48874447742
1621.90850828526
1741.98702816589
1859.37485923484
1969.73148337791
2071.42246352817
2163.49954133215
2243.0980369824
2311.56135650234
2367.86060847556
2411.89615425468
2441.76516588464
2456.73780449437
2456.83586243988
2442.4546312881
2414.43693669604
2373.99722672904
2322.61926750825
2261.94532193179
2193.54505126015
2119.40137793448
2040.81677894832
1959.274639995
1875.81327784171
1792.38836039565
1708.94551486782
1627.18487429276
1546.76474420053
1469.7362342082
1395.31260847586
1324.61199927112
1257.39452325068
1194.54387215047
1135.09669958488
1079.48188026957
1028.13189496504
980.058115349563
935.677131882851
894.70183687269
857.097181070873
822.347491226883
790.883517728659
762.064407359304
735.872293502125
712.285836191247
690.914842149907
671.96350106703
655.089083494887
640.23852929307
627.322903502916
616.250136689938
606.962955977715
599.351894588232
593.33832681801
588.875183743013
585.881863835456
584.303812850689
583.841161464956
583.785324303199
583.797319896135
583.818044163268
583.837839189837
583.855670686945
583.871497482784
583.885533164214
583.897862246215
583.908686911161
583.918116764063
583.926389344976
583.933527591374
583.939809628211
583.945211658805
583.94997495828
583.954104505442
583.957703213823
583.960907036922
583.963657788881
583.96616361975
583.968318299048
583.970297718739
583.972052185823
583.973658894717
583.97513253879
583.976490105995
583.977780038433
583.978993474056
583.980247566645
583.981304834861
583.982788899341
583.983482977627
583.986029845128
583.985212518578
583.992001073651
583.985079711397
584.00024198156
115.181521964516
115.253841496178
115.286493606285
115.27609422389
115.257184295012
115.231371888601
115.195114357924
115.149609248719
115.095531698676
115.032628128464
114.960528971763
114.878709818811
114.786446527815
114.682867723441
114.567008508336
114.437849710421
114.294468487896
114.136325679868
113.963361365405
113.780456862984
113.601004928403
113.259897367637
112.457255113982
111.514642295555
110.672670726188
110.054721549031
109.779852029156
110.006611268639
110.734501454758
111.890794931729
113.640585298478
116.026017277259
119.096639969469
122.994351629249
127.856560596162
133.797848193472
140.91306354041
149.558761892134
159.737265043412
171.881847601183
186.090551352206
202.915660998758
222.098642936501
243.779704855874
267.638534247573
293.158775332738
319.811792449457
347.040163643674
374.312178424826
400.914547534041
425.125379014947
445.865374854629
462.805625350379
474.256304419719
480.793199097107
483.030058961991
482.809273244514
480.24483690683
475.21642361639
468.071792571943
458.946894654892
447.911763706567
435.239411580863
421.242578485708
405.882090036959
390.052705960762
373.474647621831
356.452606149883
338.974432989928
322.202568894065
305.034047611096
288.779628113936
272.43261277732
257.67798235324
243.176186602189
229.900518863057
217.256591208963
205.948008624515
195.079759972183
184.983407687157
176.036371020639
167.401717641046
159.627285864516
152.369703734135
145.865768614406
139.798503403542
134.406374003243
129.424865500608
124.895249467345
120.875303811941
117.166403569163
113.972127683209
111.109701286444
108.623620863649
106.497661793634
104.712024880799
103.280630014812
102.185515326821
101.38401453388
100.916331473729
100.73708985695
100.80989432071
101.253644973994
102.225191319438
103.246910056923
104.172713384366
105.01490378057
105.789734497368
106.50868585754
107.176862691319
107.796908360467
108.37091786819
108.900969671741
109.389340303348
109.838443579866
110.250834232551
110.62908066328
110.975752095101
111.293343687522
111.584242665773
111.850739584962
112.094956908382
112.318911985955
112.524441649351
112.713280138833
112.886983196351
113.047039169136
113.194701356971
113.331333638247
113.457742705765
113.575561490723
113.684459954483
113.787832028601
113.881200029969
113.975979881427
114.050370190906
114.151871831504
114.175011857358
114.441997574184
114.203228703671
51.6055649250841
51.6041076761326
51.6144569486021
51.6274377521982
51.6328792325099
51.6299018289822
51.6189840444889
51.6000369942464
51.573028571606
51.537866824373
51.4942632528799
51.4417380881663
51.3796046253609
51.3069319060806
51.2225055019077
51.1247672123301
51.0117508744299
50.8809095952783
50.729225478825
50.5516777137034
50.3457807826569
50.1224808303986
49.8518118417691
49.4788297151439
49.0281966170257
48.5624342140025
48.175374561638
47.7344210187665
47.4157520613043
47.2430869808387
47.3187352668908
47.6853590348496
48.3404881282983
49.3307688269665
50.7237466928856
52.5922378977774
54.8806806731536
57.8488998426837
61.3680412764779
65.7143067718399
70.6700736760072
76.8336777583857
84.0028088481123
92.4386854674158
102.253413671117
113.380594993736
125.628528791888
138.987663488772
152.881888439938
166.848652213074
180.788131298108
194.054837677619
205.926305998503
215.632648615256
222.257028232805
225.511519949018
225.700765466698
223.655609306583
219.925365458778
214.844939437878
208.73002774036
201.801847631059
194.200033514759
186.085829679822
177.570132057039
168.736381189843
159.740353560419
150.619237598719
141.430938299312
132.290296051525
123.371506015464
114.688801371805
106.462424517743
98.7144406777553
91.6458393460176
85.1741914782867
79.3805215676871
74.1656799915085
69.5259335771309
65.3776714697718
61.6727922127113
58.3797071131064
55.4149402228514
52.785128270549
50.3829643623482
48.1216830352096
46.2013957721483
44.4408204963362
42.8561409117867
41.5051301576345
40.2381119359345
39.1991573774668
38.2754664974769
37.4866480468106
36.8302013200624
36.2902576999106
35.8765371424817
35.5851028613639
35.3819969032457
35.2923160019288
35.2924715107836
35.3421488092358
35.5184793528007
36.0483783086575
36.7393053603704
37.4510792030318
38.1417178679703
38.8050075219968
39.4441710099892
40.0611064845832
40.6560542659434
41.2284944271427
41.7777026557849
42.3030693595911
42.8041895566187
43.2809240563458
43.733378143214
44.1618805116929
44.5669591121369
44.94927976218
45.3096516632432
45.6489549832679
45.9681479183254
46.2682135665867
46.550168962467
46.8150072841466
47.0637618390358
47.2973276302174
47.5168005979124
47.7227501397606
47.9166853055258
48.0980272143444
48.2702695748967
48.4282520254309
48.5843305646468
48.7138568268521
48.8688825686207
48.9373398630998
49.1431553451539
49.0665722462039
30.3541161408106
30.3670874059928
30.3874448657406
30.4133125525054
30.4408523153855
30.4675760542721
30.4924988949474
30.5153403365509
30.5361575493897
30.5551986432733
30.5728157936873
30.5894289008046
30.6055190605505
30.6216358192425
30.6384229682864
30.6566571342629
30.6773325309577
30.7017525802715
30.7319094752204
30.7702454323227
30.8244609797061
30.8961665480829
30.9238107473326
30.8404264884204
30.6207434785379
30.2838959732811
29.883874943649
29.4213741412001
28.9493228992784
28.5006076338383
28.1434433818415
27.9193062696361
27.8344113792721
27.9091621139598
28.1764607004757
28.6819739696175
29.3800700270251
30.404847858737
31.6767426527984
33.3344492574481
35.2079857167608
37.6126454689283
40.4577217639413
43.9022828211573
48.0854707003804
53.0857618183595
58.8995585424776
65.6681242410731
73.3422650789011
81.9039472642379
91.4645020006555
101.788545906642
112.699569957257
123.328965529999
132.561906404136
139.188464703728
142.860910616876
143.955943595311
142.984130252654
140.435195246722
136.762224317548
132.303399524355
127.273211071564
121.890962248106
116.204172507595
110.360394130901
104.445809617151
98.4944148218304
92.4001090515719
86.3304221898224
80.2656393212322
74.2864964288496
68.3944828081802
62.7633015127739
57.506329325304
52.6611378461403
48.2773143601722
44.3874002656159
40.972203546555
37.9367361412513
35.3267391185472
33.0474003460757
31.0561385857206
29.3282238983916
27.8085846587189
26.4020961768511
25.2293305577123
24.1887175159148
23.2578323622442
22.4816400677103
21.7613988508848
21.1711066515132
20.6548128302146
20.2114063255542
19.8398016672232
19.5293435896958
19.2824700258837
19.0978829581123
18.9558283939741
18.8655202637402
18.8162671241041
18.783099605649
18.7956208760947
18.9793264999306
19.2739907472726
19.6077703257052
19.9469935843566
20.2814930707469
20.6105964832636
20.9350220332439
21.2550788021491
21.5705984375788
21.8811249075396
22.1860892394042
22.4848890126078
22.7769519964144
23.0617585548127
23.3388566076868
23.6078769195709
23.8685178199592
24.12056853959
24.3638817144577
24.5983865020138
24.8240688317801
25.0409763047568
25.2491936280814
25.4488719219581
25.6401346677313
25.8232550167027
25.9982603012569
26.1657210026426
26.3250986242883
26.4780968020214
26.6216822966178
26.7624495230156
26.8865240366356
27.0223346407132
27.107818138068
27.2662190273647
27.2759665331803
20.3625541428163
20.3740020206507
20.3913494952815
20.413933993369
20.4406594249381
20.4701532343184
20.501455510832
20.5340954508299
20.5679542982661
20.6031790847882
20.6401288044629
20.6793445534019
20.7215466366058
20.7676536380984
20.8188271754968
20.8765428910901
20.9427190330828
21.019900883638
21.1116916523503
21.222987805933
21.3643375330837
21.5385948227913
21.6950210742548
21.7796049761875
21.7555821365972
21.6139261839076
21.3728828195337
21.0472394741193
20.6742871749671
20.2717958123469
19.8857921975517
19.5507877978135
19.2799718884141
19.0886557667302
18.9963953535503
19.030916650057
19.1674220550123
19.4721487797689
19.9027793850158
20.5249605342332
21.23907356653
22.1882514197996
23.3259129208181
24.7245308227465
26.4609727757052
28.5975563187591
31.1618910917768
34.271338070648
37.9813569676046
42.4478684233996
47.8631303895276
54.3241918454657
62.0792249833002
70.7690511294948
79.7008248612845
87.6402092548578
93.7921403832028
97.8628696183571
99.8976353931038
100.180701954654
99.0939992128555
96.9922888848269
94.1501084691182
90.8340325164044
87.1339010358147
83.2309084442729
79.2144278621779
75.1440273571027
70.9089099402304
66.6510508289875
62.2968269932316
57.9308217697288
53.4721250568701
49.1055475476857
44.8961477212005
40.9394705338663
37.2774186913879
34.0026400551974
31.1063471426518
28.5211198018646
26.3124433808407
24.3909288203388
22.7315476127341
21.3003120307766
20.0713764147032
18.9593601230388
18.0259453119372
17.2159719307763
16.4977741673669
15.8966713977241
15.3512889058843
14.8954013082612
14.4999353844765
14.157838515809
13.8665185722548
13.6183794548594
13.412615835645
13.2478858844947
13.1122172908953
13.0082175011218
12.9299438779467
12.8618539961692
12.8148849864146
12.8570931110315
12.9693002121042
13.1142381434562
13.2693577802937
13.4256806701015
13.5812337333037
13.7360239623306
13.8903153280396
14.0442295367723
14.1977259898903
14.3506614461435
14.5028272579471
14.6539835048537
14.8038742321919
14.9522391894314
15.0988266143594
15.2433901086313
15.3857060405325
15.5255640605286
15.6627784799468
15.7971827800342
15.9286349520588
16.0570099261304
16.1822146404563
16.3041461146766
16.4227767994783
16.5379661073974
16.6498394261182
16.757991792038
16.8631014395604
16.9635522902937
17.0623854199305
17.1526715366506
17.2479896083746
17.3179792385376
17.4207759519291
17.4573225095499
14.8619072641892
14.8700642167255
14.8827697896439
14.8997604596295
14.9208109700991
14.9454200548891
14.9731158696152
15.0036013554872
15.0367689728053
15.0727048368394
15.1116850556087
15.1541724325417
15.2008255232306
15.252523397563
15.3104122983552
15.3759780086401
15.4511699385621
15.538585977472
15.6418588015083
15.7659500167953
15.9206016745603
16.1107791484096
16.3036555067792
16.4611927818195
16.550455705961
16.5519692533793
16.4631289106193
16.2872844836562
16.0508022139814
15.7616050435723
15.4522440283323
15.1499340303959
14.8695446201
14.6254164455011
14.4327992486007
14.3110343200934
14.2480369212359
14.2805067572266
14.3855481176152
14.5968435066337
14.8562986594346
15.2318079075415
15.695960188655
16.2798947469514
17.0201817659602
17.9493012318763
19.0829452666555
20.4851854525557
22.195914785267
24.3402331790432
27.0434934738031
30.4542765980178
34.9010787092515
40.4462774169485
46.9632306976917
53.7758263210347
60.2086310388664
65.6810965647342
69.796242184836
72.4370026730485
73.7024633510352
73.7983771337315
72.9558904554769
71.4364511372196
69.3752076197757
66.9709634494628
64.3404333583347
61.57409931864
58.6111039973384
55.5595220449384
52.3597630241202
49.0748207518349
45.6226358905077
42.135961656026
38.6691206548104
35.3248521033927
32.1555942045291
29.2650069268641
26.6744694756603
24.3453387747268
22.3353530664418
20.5853908953437
19.074960127089
17.772149170547
16.660282230506
15.6730735978003
14.835400567011
14.1148563445612
13.4810468016488
12.9452241705845
12.4672337540618
12.0608843966327
11.7086935688194
11.4024564109706
11.1383398190125
10.9101815809828
10.7157476706496
10.5532751119342
10.414679035651
10.2998481970004
10.2046626843772
10.1186049665613
10.0451696579527
10.0237313361703
10.0488119824654
10.0998310604747
10.1616639536899
10.2270321519425
10.2935661580904
10.3607697173494
10.4286669873156
10.4973440072866
10.5668365972962
10.6371272163836
10.7081549969347
10.7798309473444
10.852045536309
10.9246752454296
10.99758956205
11.0706504609983
11.1437220406549
11.2166667438779
11.289352198442
11.3616493558583
11.4334361070338
11.5045945721622
11.5750190139776
11.6445961554638
11.7132473413784
11.7808364161484
11.8473558899786
11.9125351559655
11.976632408385
12.0387706826784
12.1003573411946
12.1578602483684
12.2178468804093
12.2650999756942
12.3277343950031
12.3589339527686
11.4762121598931
11.4819951537239
11.4911798107965
11.5036832419882
11.5195348164661
11.538639522824
11.5608857942285
11.5862102838046
11.6146252307078
11.6462498907352
11.6813334036177
11.7202719357088
11.7636295749558
11.8121682048032
11.8668933433221
11.9291210404149
12.0005872853048
12.0836104457247
12.1814162375402
12.2984011609491
12.4427529328664
12.6199438347452
12.8095047239045
12.9861346604849
13.1250888245949
13.2070542889842
13.2213120094013
13.1617302784469
13.0417421847906
12.8646661320305
12.6507763175873
12.4202671189284
12.1866290579926
11.9630009642081
11.7627308708612
11.6011658299596
11.4732567742277
11.4026839094103
11.3768519731518
11.4155535692477
11.4832459672465
11.6156997066295
11.7956602726261
12.0371509390387
12.3581920237982
12.7752455111378
13.2950475285937
13.9499337167063
14.7596008674019
15.7941171698299
17.1262366345342
18.8360725825237
21.1405998584
24.1824007152486
28.0824781587499
32.6650876682398
37.6649763118004
42.7006933805482
47.3257859438844
51.1859183318691
54.0799396713516
55.9530174238938
56.8649633040775
56.9766723666509
56.4025885863472
55.3322058246212
53.8967941248167
52.2083946036535
50.2584730022921
48.1437219557281
45.8302002701571
43.3678433568605
40.6930271016559
37.8933688784166
35.0148481700631
32.1523563379415
29.3681911956393
26.7639292958203
24.3875330559648
22.2283234901428
20.3354218449878
18.6784619343458
17.2418798800311
15.9988931081478
14.9359212880631
14.0035308033157
13.2054915888734
12.5201724446995
11.9208365339456
11.4095325751816
10.9582428059737
10.5702525504353
10.2332976826579
9.93925044416797
9.68345436393637
9.46039871354549
9.26708281820505
9.10130918839984
8.95707735049828
8.83301732914414
8.72578376069654
8.62773533438854
8.53897333272827
8.48316329805942
8.45978833472308
8.45715034141935
8.46507078057317
8.47786053097948
8.49317923202327
8.51024627321811
8.5288609539741
8.54898750587879
8.57061237776053
8.59370882245708
8.61823056889617
8.64411557943595
8.67128876790531
8.69966534314162
8.72915410753487
8.75965793393502
8.79107840425665
8.82331453074812
8.8562663867022
8.88983428923626
8.92392105100642
8.95843047914992
8.99327181231116
9.02834944421368
9.06358479747178
9.098868536794
9.13415656034936
9.16926708784099
9.20428866883058
9.23871942466188
9.27323038325774
9.30592249523489
9.34012561139803
9.36770158243499
9.40346605339102
9.42107569649225
9.21746620857047
9.22170159940994
9.22849662559587
9.23784280816088
9.24982324464482
9.26448712731609
9.28189435819102
9.30213043277861
9.32531452217002
9.35162323648746
9.38131523715036
9.41475417018403
9.45243417378308
9.49501145401094
9.54334772040115
9.59857024534492
9.66216616514166
9.73612010516302
9.82318303277814
9.92709198891116
10.0545572536661
10.2107314375767
10.382556031232
10.5532155987965
10.7053242170365
10.8234599508603
10.8959540850993
10.9128067315526
10.8783891602071
10.7917060998291
10.6638509664279
10.508626352422
10.3363880387656
10.1580736298221
9.98524146668675
9.83073042899698
9.69320335813292
9.59002740598713
9.51433040788838
9.47950839606173
9.4626626578875
9.48506647079173
9.53547240985513
9.62084565954374
9.75099151764265
9.93501582694652
10.1758050840483
10.4905797223997
10.8888510600437
11.4083064882549
12.0920796671447
12.974154398053
14.1705674979777
15.7730327442233
17.9006678156898
20.5611206641486
23.7419691001812
27.3494137623141
31.1694220097634
34.9295808294976
38.3550363023078
41.2171439065684
43.3786045517659
44.8271675352169
45.5708960875988
45.732724277733
45.418245695479
44.7343825233465
43.7035956566409
42.4232796066382
40.8826564796611
39.1287775931055
37.1185276705683
34.913549838518
32.5508334891123
30.1136806595381
27.6695334854105
25.315430713231
23.1177298909415
21.0914978758471
19.2824687700455
17.6834125850495
16.2862512627616
15.0707548558686
14.025294417655
13.1137460716399
12.3284378246811
11.6528487922291
11.0640084741804
10.558053494853
10.1141857612938
9.72978965045493
9.39499741700382
9.10200328915727
8.84561155693595
8.62058734067528
8.42343204567998
8.25155118388767
8.10012794089016
7.96713835906742
7.84958147923378
7.74158456297146
7.64151363276014
7.56360105822743
7.50906074579012
7.47131155976999
7.44360321527534
7.42163650806209
7.4033119402143
7.38773170221965
7.37453534016367
7.36356574019447
7.35472901840718
7.34794558938866
7.34313486765429
7.34021198177647
7.33908736162077
7.33966806517319
7.34185875755284
7.34556271525067
7.35068331900912
7.35712413669468
7.36479048882064
7.37358898676888
7.38342894545015
7.3942210585029
7.40588018601605
7.4183192745472
7.43146132245399
7.44521299438441
7.45951656642168
7.47423909371541
7.48939347799686
7.50466960214759
7.52039040141145
7.53546845531148
7.55168304439936
7.56432079499596
7.58219027124515
7.58649567279824
7.61820188902053
7.62141712240621
7.62660041076389
7.63377232995026
7.64301177556865
7.65440115650272
7.66805511361708
7.68411980928417
7.70276922347125
7.72421658668155
7.74873140208103
7.77665906612514
7.80844448631313
7.84466137960652
7.88605136766326
7.93357658380779
7.98850011034496
8.05250116312406
8.12789676108775
8.21782135429984
8.32774743206168
8.46223951942954
8.61266908094808
8.76755826054138
8.91480931306631
9.04309404870316
9.14259093832612
9.20320994874788
9.22468962980858
9.20283287993204
9.14294931580383
9.05315006349702
8.94022116392387
8.81232794959118
8.67888087576759
8.5505278247919
8.42760972159748
8.32388710325504
8.23568613918989
8.17314228094076
8.12077165802833
8.09283076310716
8.0818575557169
8.09185962436673
8.12889835560363
8.19867877000963
8.3026461919314
8.45089569938748
8.64847151844579
8.91683253898313
9.28217032227189
9.76055795961422
10.4125012559273
11.2840978218021
12.4438145739324
13.9179443356693
15.7498001840149
17.9676366645779
20.5431182927212
23.3914138466972
26.3682868964034
29.2796646765998
31.9258622570555
34.1676861544555
35.8823736425735
37.0769662720018
37.7798027088765
38.0503205034015
37.9038152459283
37.4298026907361
36.6287843048195
35.547562922881
34.1591166129818
32.5141767791123
30.6424919823499
28.6161400649659
26.503413344545
24.3969828850689
22.3741765856026
20.4722348388253
18.7389766162763
17.1856607390507
15.8138005235916
14.6109954211901
13.5681651120982
12.6598727607039
11.8729717454095
11.1935927939609
10.602093064445
10.0909382518053
9.64380011568557
9.25464137702152
8.91466818960805
8.61637054720744
8.35419354499804
8.12299269893601
7.91889883943432
7.7389609428181
7.57905042279928
7.43676414136643
7.309246811902
7.19176897858844
7.08172981996415
6.98729703945538
6.91009635551079
6.8466454839022
6.79264216272636
6.74497502264213
6.70188624695322
6.66247594215768
6.62628821603918
6.59306745694279
6.56263896749232
6.53485883976309
6.5095953087433
6.48672155393355
6.46611342126708
6.44764949426906
6.43121054429669
6.41668086476639
6.40394764122473
6.39290185306459
6.38343842827849
6.37545587493526
6.36885715127035
6.36354817465308
6.35943980559212
6.35644368927916
6.35447913657921
6.35345760217681
6.35331200499291
6.35393307698261
6.35529490509011
6.35718662656125
6.3597561734666
6.36233620487754
6.36592799153901
6.36754789955069
6.37322680381114
6.36650120980592
6.4335931890566
6.43611258369043
6.44018209621127
6.44583400828453
6.45313251143191
6.46215618447624
6.47302202322405
6.48588396949296
6.50092708013234
6.51837186923633
6.53848426221284
6.56158968335195
6.58809202906726
6.61849843782218
6.65345278181637
6.69378058854635
6.74055699223289
6.7952025913461
6.8596661525381
6.93657091621206
7.03038913844622
7.14505964699712
7.27469642055456
7.41120120363596
7.54599663013272
7.67093678374282
7.77853149805513
7.86020840421142
7.91404995403187
7.93447682353465
7.92330947665962
7.88448894321466
7.82169879682839
7.74030650280755
7.6473798442029
7.55139472972156
7.45311311122175
7.36376344037505
7.28134470205453
7.21403257485164
7.1508180616911
7.10227498631717
7.06340384936074
7.03697534930419
7.02729349784006
7.03843427355537
7.07136901669777
7.13266317974502
7.22538935511905
7.36282756745853
7.56145459498188
7.83068961684143
8.20401543717096
8.70369875317952
9.36411727337364
10.198210151555
11.2380012394413
12.5228246302735
14.0801338074007
15.922890184476
18.0345037495731
20.348161784327
22.7474424035031
25.1033279420059
27.2460515857714
29.0899358918501
30.5697569550827
31.663753442759
32.3373614023868
32.6456347836746
32.5770146233993
32.1690372080291
31.3997993146772
30.3153956400981
28.9398843531298
27.3357746932164
25.569101013981
23.7287905943422
21.8974230988425
20.1300037600215
18.480522455657
16.9756110342903
15.627730124003
14.4335873392062
13.3879874650468
12.4744769660073
11.6785870997897
10.9881152294358
10.3863680515122
9.86375154360646
9.40684951299905
9.0076602478565
8.65785006417107
8.35012447417683
8.07868880491909
7.83840089513393
7.62509589203857
7.43550568354613
7.26589680704352
7.11362072314966
6.97586814641306
6.84867078846136
6.72885578025839
6.62051083897537
6.5251177519376
6.44111957955446
6.36598900953404
6.29761299266031
6.23461311484815
6.1761627421782
6.12176345297325
6.07108758378914
6.02388868695278
5.97995835923407
5.9391086495164
5.90116345457578
5.86595547220594
5.83332562672322
5.8031215187066
5.77519902661359
5.74942014824114
5.72565443520488
5.703778108828
5.68367365860065
5.66523032075114
5.64834228973247
5.63291028849994
5.61883825473631
5.60603748617591
5.594416839138
5.58389990951904
5.57438657262921
5.5658276872598
5.55806365625736
5.55114903948638
5.54464122156668
5.53913513315151
5.53255234432397
5.52963674451995
5.51413558781264
5.52473647232969
5.52676407779332
5.53003955675013
5.53459991278334
5.54049694032753
5.54779757120147
5.55660419389445
5.56705581087478
5.57932434540711
5.59361669368522
5.61018073943568
5.6293151248898
5.65138368498295
5.67683538167989
5.70623205190387
5.74028599726141
5.77991689473683
5.82633130229947
5.88117324306209
5.94664362795809
6.02641491186212
6.12384490899805
6.23481280032112
6.35343477986383
6.47345870388841
6.58896440626243
6.69441809279584
6.78306052504488
6.85279685335109
6.89804771325934
6.91875235182767
6.91637911036497
6.89227422564544
6.84945798656674
6.79280729123737
6.72872274586582
6.6576837663281
6.58883211202931
6.52088608703138
6.46057706252922
6.39960988664977
6.34639821383781
6.29754180318203
6.2552905655583
6.22309770671716
6.20422706752715
6.19955031263432
6.21377802760206
6.24907653707264
6.31437631762346
6.42061960158336
6.57410279315995
6.79512305321546
7.09480117939136
7.49010422286495
7.98398482616618
8.59282775379857
9.3415389605739
10.2558737169041
11.3653146100521
12.6975172851236
14.2632290679589
16.04337772823
17.9955889893361
20.0098599797837
21.9987561300834
23.8578070172666
25.5001527442187
26.825440129196
27.8286588996332
28.4574898821248
28.7199122438099
28.5798564175672
28.0738857126773
27.2175148905819
26.0637653461106
24.6735904838202
23.1323557876319
21.5235903851131
19.9153134863057
18.3699942697762
16.9275963320597
15.612270060948
14.4310041653274
13.3841503522844
12.4633934080533
11.6558411051534
10.9510203651455
10.3349871792142
9.79732161088963
9.32667330306681
8.91402502254748
8.55126476947626
8.23125576768148
7.94805506354563
7.6964918023962
7.47216416368997
7.27152906538281
7.09106774075111
6.92795617723076
6.77937950547353
6.6418818961522
6.51194165993404
6.39083565679532
6.27968607966652
6.17813640879958
6.08494669643799
5.99882560506184
5.91877196797599
5.8440774598089
5.77424123277427
5.70888793892002
5.64771111059181
5.5904419697501
5.5368362171781
5.48666607795816
5.43971748056857
5.39578938642481
5.35469165041804
5.31624690790546
5.28028726835567
5.24665613044847
5.21520648662095
5.1858004234746
5.15830928930058
5.132611555901
5.10859415882925
5.08614948557879
5.06517798604217
5.04558143541096
5.02727338330036
5.01015452245324
4.99415956387035
4.97915433674706
4.96514074241035
4.95179857502324
4.93950465792883
4.92666407670787
4.917452033742
4.89497218019283
4.80763097956126
4.80929980446372
4.81199204000005
4.81574601488589
4.82060499974291
4.82662549529155
4.83389335295255
4.84252695601335
4.85267620188145
4.86452452315854
4.87829337025986
4.8942494892698
4.91271603990337
4.93408849412607
4.95885733585771
4.98763919024654
5.02122424445466
5.06064210575572
5.10728592873654
5.16301023588455
5.23084841197139
5.31364686305117
5.40845800838622
5.51090623959573
5.6163147738631
5.72028058193121
5.81870318992477
5.90638851973129
5.98159071586735
6.03941571772536
6.07901596307495
6.10060150992603
6.1040593405523
6.09074182512685
6.06373535560627
6.02762578465579
5.98232148039596
5.93513470488558
5.88493766281783
5.83722134831369
5.7853122216275
5.73615556604682
5.68735024870869
5.64088990987281
5.59977924030345
5.56684503737412
5.54298822917567
5.53188377252199
5.53526050292787
5.55958631931736
5.61255363617681
5.69869405964759
5.8314026749169
6.0165964718017
6.26283316767895
6.56844260904859
6.9405104517824
7.3920593212074
7.93827031029827
8.60030908966137
9.40514237305081
10.3801976837868
11.5468843219702
12.923061716405
14.4802053169507
16.1914566231059
17.9911135275026
19.7946744832871
21.4739436062395
22.9710968667622
24.1808224590909
25.0615133388315
25.5390025492915
25.6244466292929
25.3141541234764
24.6467429334115
23.6733616294984
22.4743856189686
21.1304983838492
19.7178117085093
18.307785903022
16.9520989858973
15.6868254111833
14.5301639690652
13.4897522468873
12.5652180399416
11.7474532289373
11.02836916155
10.3968448421502
9.84266686254816
9.35616823634801
8.92801846712037
8.55031305217878
8.21606976806916
7.91928611820782
7.65477205193948
7.41794920931706
7.20504938639833
7.0126584107553
6.83781886657694
6.67768575365729
6.52914614144955
6.38847040123388
6.25500019505182
6.12944784708599
6.01218893789655
5.90290139641445
5.80094931721062
5.70567862546412
5.61651985863117
5.53299715782397
5.45470762096982
5.38129650278237
5.31244047624723
5.24784105998488
5.18721891678725
5.13031212520207
5.07687591061388
5.02668026379085
4.97951217606486
4.93517145549282
4.89347284521331
4.85424367015859
4.81732320829965
4.78256259523216
4.7498223201109
4.71897342451926
4.68989450841248
4.66247344675672
4.63660228117169
4.61218385377549
4.58911486156923
4.56731728852844
4.54666797841548
4.52713747833052
4.5084720248454
4.49093004310098
4.47317473655534
4.4591706010568
4.43105779206779
4.22878255509254
4.23018236003448
4.23243474631212
4.23557744024929
4.23964795941114
4.24469511527553
4.25079098214139
4.25803491011977
4.26655436090193
4.276507406353
4.28808680912855
4.30152607441721
4.31710845614049
4.33517988697586
4.35616764958865
4.38060616204653
4.40917648227203
4.44276093052947
4.48254548585347
4.53010016674254
4.58794572611637
4.65848972544253
4.73958396402793
4.82791377398083
4.91990784126665
5.01221287146873
5.10173417165995
5.18447695293834
5.2591184839654
5.32163215038272
5.37099763395006
5.40689516889979
5.4285075441938
5.43615488973754
5.43163291218939
5.41809261655773
5.3948677901113
5.36768601261375
5.33529277015101
5.30205361832107
5.26224690456505
5.22166307628665
5.17847563160999
5.13448196813571