/*--------------------------------*- C++ -*----------------------------------*\
| =========                 |                                                 |
| \\      /  F ield         | OpenFOAM: The Open Source CFD Toolbox           |
|  \\    /   O peration     | Version:  3.0.1                                 |
|   \\  /    A nd           | Web:      www.OpenFOAM.org                      |
|    \\/     M anipulation  |                                                 |
\*---------------------------------------------------------------------------*/
FoamFile
{
    version     2.0;
    format      ascii;
    class       volScalarField;
    location    "7000";
    object      p;
}
// * * * * * * * * * * * * * * * * * * * * * * * * * * * * * * * * * * * * * //

dimensions      [0 2 -2 0 0 0 0];

internalField   nonuniform List<scalar> 
14000
(
0.0740647712392254
0.0737883517515995
0.073676784802149
0.0736613812500838
0.0736975484300797
0.0738067615568568
0.0739968969085886
0.0742711300337413
0.0746369232258873
0.0751033397059081
0.0756806432872624
0.076381021651333
0.0772188374972394
0.0782109176550052
0.0793769759557859
0.0807401878023926
0.0823277796147714
0.0841722338271668
0.0863117229697588
0.0887944736091471
0.0916719901274176
0.0950429689657152
0.0990245373901907
0.103221001639464
0.10741573793425
0.111462322464464
0.115204756744588
0.118572272976151
0.121301128483776
0.123494311129274
0.124788240989195
0.125157877018225
0.124510329123409
0.122551034196803
0.119088487097078
0.113852970659681
0.106855363310562
0.0969763949578203
0.0848499269001986
0.0686281805619873
0.0488455306187886
0.0221248508528852
-0.00980101436073837
-0.0497388293052959
-0.0974291638393428
-0.152243924380676
-0.213654186657932
-0.281318200111167
-0.35202198466694
-0.424045654332354
-0.49220898788487
-0.552101217708132
-0.602930515688489
-0.638259226427414
-0.661382530405366
-0.672797783449057
-0.677690705164574
-0.675930192955303
-0.667969609076341
-0.655354097363403
-0.638602600469346
-0.618214156230113
-0.594778235232752
-0.569238407885732
-0.541170492258429
-0.512499910336707
-0.482280187063863
-0.451703355562887
-0.420279564562804
-0.390322279449759
-0.35992098535358
-0.331693151598903
-0.303919172162093
-0.278949017074712
-0.255078841350642
-0.23357612899012
-0.21346607023467
-0.195393480766607
-0.178612303884024
-0.163099156672815
-0.14901460005722
-0.135721318635227
-0.123496378573732
-0.111917717511163
-0.101183016845061
-0.0908630390180439
-0.0812212536103761
-0.0720063623940234
-0.063198011502207
-0.0548936768334785
-0.0468562364049745
-0.0393058728184715
-0.0320737040997164
-0.0252507936715306
-0.0188260436390747
-0.0128228197121621
-0.00728387801891943
-0.00225762068129843
0.0022566739882125
0.0061344118489517
0.00934856531862972
0.0118036282590049
0.0132957765543115
0.0135481220937173
0.0134765174463808
0.0132170935540171
0.0127937249883205
0.0122711705494552
0.0116822414150526
0.0110543429456215
0.0104091079427619
0.00976242628971769
0.00912617207864593
0.00850888800311696
0.00791647681484483
0.00735274555308066
0.00681987262962304
0.00631880753087879
0.00584952612818141
0.00541134719107096
0.0050030328317393
0.00462301906285526
0.00426946471129963
0.00394039661028139
0.00363368888565707
0.00334727727816836
0.00307882628375743
0.00282652661398158
0.00258748119199998
0.002361029819586
0.00214191345365302
0.00193420724301653
0.0017226034038705
0.00153128789065538
0.00130216956556938
0.0011458625319954
0.000821491578991793
0.000809980231175294
0.00010719728403496
0.000644115359100631
0.0740647771280121
0.0737883502408823
0.073677079415138
0.0736618838484764
0.0736980769392191
0.0738073387778127
0.0739975287768291
0.0742717990825208
0.0746376194698305
0.0751040552998257
0.0756813689197616
0.0763817473125181
0.0772195523476721
0.0782116096883378
0.0793776318777627
0.0807407934218762
0.0823283200579305
0.0841726954401712
0.086312092415442
0.0887947483487759
0.0916720076957802
0.095041750936831
0.0990213754119221
0.103216463137413
0.10741053813491
0.111457071517359
0.115199360222491
0.118565902202626
0.121292310923356
0.123480308422381
0.124765345188972
0.125121815217625
0.124454562582099
0.122467329600384
0.118967874979707
0.113686326636473
0.10662548650765
0.096673008198603
0.0844502657469363
0.068113848125563
0.0481754810771943
0.0212942225882733
-0.0108030055463371
-0.0509089816150723
-0.098722310790458
-0.153607722642463
-0.215037576862671
-0.282639213279877
-0.3532070747333
-0.425016083142034
-0.492911543942459
-0.552548495070866
-0.603133827270953
-0.638289068888409
-0.661313057849342
-0.672689272653835
-0.677568593925551
-0.67580759148785
-0.667860888744316
-0.655268347457901
-0.638545995094488
-0.618191598472444
-0.594792170622209
-0.569290889720344
-0.541261019644501
-0.512626523628973
-0.4824431064341
-0.451900864373048
-0.420503645351207
-0.390569761394603
-0.360185906623636
-0.331968801972546
-0.30419762622481
-0.279223609906877
-0.255347838198049
-0.233834265702515
-0.213711869260708
-0.195625257376066
-0.17883277809011
-0.163304566710624
-0.149207160348977
-0.135901846017491
-0.123664567021805
-0.112074123936339
-0.101328821906886
-0.0909981428094062
-0.0813453289191744
-0.0721209077905726
-0.0633019962723416
-0.0549880018213217
-0.0469407946446495
-0.0393805389729237
-0.0321392933634783
-0.0253072938828053
-0.0188740371414667
-0.0128629385725969
-0.0073169839994127
-0.0022848807289152
0.00223394455144506
0.00611460219058873
0.00932967148717782
0.0117833474818768
0.0132738197733138
0.0135288470178988
0.013461570712398
0.0132045863898809
0.01278276026512
0.0122614298727572
0.0116735555254993
0.0110466086431836
0.0104022370358413
0.0097563366479676
0.00912078618493788
0.00850413270240944
0.00791228399397752
0.00734905237377435
0.00681662184824458
0.00631594729113
0.00584700981986886
0.00540913308540003
0.00500108366945731
0.00462130178145189
0.0042679499136271
0.00393905833200848
0.00363250409635745
0.00334622575441979
0.00307788996811789
0.00282569001324773
0.00258672965371544
0.00236035241342644
0.00214129608452517
0.00193364661890338
0.00172207656948801
0.00153081639139381
0.00130168171532301
0.00114548588535722
0.000820932764841572
0.000809791757700165
0.000105916133278415
0.000645781740531182
0.0740640623619852
0.0737876072685889
0.0736773266530883
0.0736624659960234
0.0736987190226606
0.0738081499212842
0.0739984935465573
0.0742728793656172
0.0746388061377166
0.0751053423398807
0.0756827497449384
0.0763832174241625
0.0772211082433682
0.078213247927651
0.0793793483831167
0.0807425830443088
0.0823301742293449
0.0841746014734924
0.0863140180403646
0.0887966219655512
0.0916734082986987
0.0950398365093985
0.0990123151401651
0.103199812040186
0.107386803411202
0.111426597018419
0.115161696971367
0.118519807243003
0.121235800351653
0.123409224307607
0.124675633590198
0.125008530412509
0.124310161102553
0.122283523660888
0.118736718558189
0.113398482630841
0.106264739710746
0.0962335879630045
0.0839089967496801
0.0674597238485875
0.0473744100167725
0.0203698587692553
-0.0118559900700528
-0.0520541812762709
-0.0998952036044484
-0.15474736130578
-0.216083104279363
-0.283500315233176
-0.353820937380354
-0.425315821204558
-0.492892385417639
-0.552272175282967
-0.602647212713358
-0.63772274598406
-0.660750157966733
-0.672186027770105
-0.677119602821259
-0.675411511151637
-0.667522707804036
-0.654987314855588
-0.638321385039206
-0.618023751793417
-0.5946794771761
-0.56923185111354
-0.541253704090062
-0.512665195435745
-0.482526653882786
-0.452026690782985
-0.420663096393031
-0.390758034884789
-0.360396090393659
-0.332194789144674
-0.304430116588491
-0.279456793571049
-0.255578084817494
-0.234057819520641
-0.213925990250466
-0.19582837267582
-0.179027086226646
-0.163486677707475
-0.149378937486841
-0.136063775884758
-0.123816787476395
-0.11221657699434
-0.101462843602099
-0.091123711386204
-0.0814619296342162
-0.0722299891464491
-0.0634027488575652
-0.0550812903915169
-0.0470266558814461
-0.0394591258080909
-0.0322112017254683
-0.0253731357398054
-0.018934631902605
-0.0129193266854524
-0.00737034125936909
-0.00233674292276301
0.00218164874285395
0.00605971969808234
0.00926987032714686
0.0117158094772726
0.0132024842486744
0.0134664529201381
0.0134114870435203
0.0131617805927718
0.0127453307720379
0.0122284466011247
0.0116443276756185
0.011020674698038
0.0103792148418111
0.00973589744995919
0.00910264051095718
0.00848802108349034
0.00789797378442052
0.00733633524443539
0.00680531190960621
0.00630587922385464
0.00583803687638089
0.00540112552257193
0.00499392665475987
0.00461489418823029
0.00426220243074911
0.00393389245631755
0.00362785044591158
0.00334202376188378
0.00307408525187613
0.00282223695554716
0.00258358339329492
0.00235748313844027
0.00213865769608406
0.00193123970258314
0.00171981758855367
0.00152880711437688
0.00129965480630597
0.0011439455950803
0.000818851090306787
0.000809112612597331
0.000102406102054307
0.000652907677028674
0.0740621613242063
0.073785739361765
0.0736771291441758
0.0736627583325915
0.0736991939877062
0.0738089619473598
0.0739995873862059
0.0742741923745107
0.0746403193492182
0.075107038916937
0.0756846134055402
0.0763852354835097
0.0772232686134514
0.0782155365510464
0.0793817462572205
0.0807450622343635
0.0823326886675082
0.0841770755081138
0.0863163013642642
0.0887983919651226
0.0916738542652248
0.0950338654248875
0.0989915132115067
0.103162425793785
0.107332999469214
0.11135647174442
0.115074426763841
0.118413504911283
0.121108599365294
0.123255125968313
0.124490757479612
0.124787093633219
0.124043305261858
0.121962800433015
0.118354713603881
0.112945358495221
0.10572341145325
0.095602546009581
0.0831618655991399
0.0665921208560651
0.0463541367222962
0.0192453332448278
-0.0130871718719411
-0.0533268112945463
-0.101124213417551
-0.155856194928542
-0.216991912799929
-0.284096880082384
-0.354035437265215
-0.425071214981395
-0.492209540700648
-0.551251434114919
-0.601370529533703
-0.636400470303027
-0.659501776296411
-0.671092884542541
-0.676156342032474
-0.674568713011792
-0.666798994364274
-0.65437165555059
-0.63780542399513
-0.617602503958494
-0.594346122822095
-0.568979466526175
-0.541079227798629
-0.512555825830437
-0.482479916370942
-0.452037391612481
-0.420722491748906
-0.390855873739536
-0.360525975201606
-0.332347972372202
-0.304597708548125
-0.279631582942334
-0.255755210687738
-0.23423416938669
-0.214098277794694
-0.195994706214286
-0.179188819733748
-0.163641365812747
-0.149527143244403
-0.136205456349376
-0.123952654974527
-0.112345847237888
-0.101586484049946
-0.0912423768075249
-0.0815749830603852
-0.0723385554942511
-0.0635069295757134
-0.055181765589059
-0.0471242502024531
-0.0395545649249825
-0.0323048808945638
-0.0254666756085964
-0.019029187612874
-0.013016602099476
-0.00747185611786151
-0.00244422620635414
0.00206559294586669
0.0059326929360794
0.00912948300681861
0.0115587514329169
0.0130380636123011
0.0133187819880509
0.0132872330938025
0.0130536325064751
0.0126502717450308
0.0121444146302929
0.0115696783478572
0.0109542387964249
0.0103200163005627
0.00968310166688884
0.00905551869712432
0.00844592731269681
0.00786033443331628
0.00730264103258394
0.00677511113392088
0.00627877220467074
0.0058136699903438
0.00537918673836326
0.00497414023110553
0.00459701708234854
0.00424602000009336
0.00391921547988176
0.00361451153676295
0.00332987589084191
0.00306299676570532
0.00281209522261008
0.00257428106135092
0.00234894129642846
0.00213077415500134
0.00192399158738862
0.00171304913894972
0.00152266458038992
0.00129369979253065
0.00113896843660014
0.000813249519981161
0.000805974948549485
9.49725745331139e-05
0.000664665401753517
0.0740589737720065
0.0737826128355251
0.0736759912020164
0.0736621089275628
0.0736987751522516
0.0738089531651934
0.073999897799309
0.0742747369952708
0.0746410592116793
0.07510793133756
0.0756856130409318
0.0763862965153349
0.0772243392830076
0.0782165537909816
0.0793826284772842
0.0807456986539826
0.0823329191647554
0.0841766595599148
0.0863148368959628
0.0887951166509048
0.0916673057212278
0.0950171770185985
0.0989532336473872
0.103100547323072
0.107247803306958
0.111248122104017
0.114941865825433
0.118254368783802
0.120921363349966
0.123032560965296
0.124229385916868
0.124480242883927
0.123681010857989
0.121536292348112
0.117856275297173
0.112364267069155
0.105041339713112
0.0948197411726933
0.08224916156271
0.065548404839931
0.0451478632715473
0.0179379019729472
-0.0144957749064782
-0.0547550744599713
-0.102473179070344
-0.15703666163558
-0.217907783542986
-0.284616487561856
-0.35407614115098
-0.424541862806749
-0.491133230388133
-0.549740949643645
-0.599523412745134
-0.634480868391035
-0.657666198501422
-0.669458491046715
-0.674697286144349
-0.673280509992328
-0.665682367474457
-0.653410307608908
-0.636986423182525
-0.616917229835547
-0.593783461201372
-0.568527547538555
-0.54073421166991
-0.512297723631919
-0.482305567669631
-0.451938222390474
-0.420689383413556
-0.390872145609382
-0.360586015594681
-0.332438116387712
-0.304709473156132
-0.279754902222685
-0.255884581205443
-0.234366341501467
-0.214230097086087
-0.196124278161276
-0.179316706817695
-0.163766703939373
-0.149650205743638
-0.136325137569473
-0.124071025534055
-0.112461384881832
-0.101700078306836
-0.0913549064445769
-0.0816864234446787
-0.072449089028763
-0.063617502307915
-0.0552929949991679
-0.0472370148201997
-0.0396702994202176
-0.0324233839958572
-0.0255901681926321
-0.0191589391561262
-0.0131545728299665
-0.0076197025110504
-0.00260370219538625
0.0018916609489402
0.00574177419201377
0.00891933786149421
0.0113262589640054
0.0127952722886617
0.0130948828956545
0.0130917985263865
0.0128798491399744
0.012495386465739
0.0120060084489641
0.0114456251245525
0.0108429215208699
0.0102200350681225
0.00959323615729884
0.0089746885839057
0.00837316539543635
0.00779477420884913
0.00724350666294231
0.00672170907303841
0.00623048392162436
0.00576994425623923
0.00533953354312631
0.00493812363190693
0.00456425016915687
0.00421615886569418
0.00389195497248938
0.00358958011476145
0.00330703333796721
0.00304202727606005
0.00279281182887354
0.00255650740042124
0.00233254149879737
0.00211558546374011
0.00190995728841626
0.00169994415378737
0.00151065737447771
0.00128221052858984
0.00112901013592223
0.00080273126803695
0.000799133853659269
8.22198791135194e-05
0.00067870763051398
0.0740544792937595
0.0737781707735094
0.0736736319096308
0.0736601551511947
0.0736969989193024
0.0738075358612302
0.0739987202939889
0.0742736924215319
0.0746400823861678
0.0751069446428129
0.0756845285650016
0.0763850166043437
0.0772227482076871
0.0782145085726203
0.07937994594982
0.0807421358585301
0.0823281393430341
0.0841701758553459
0.0863058927324611
0.0887823743349225
0.0916484620363083
0.0949839454230894
0.098892179224946
0.103009802357822
0.107128131136745
0.111100204057564
0.11476500609337
0.118046163500878
0.12068085728479
0.122751837221878
0.123905493747119
0.124105883762828
0.123245476479414
0.121030531395805
0.117271986812624
0.111689896562273
0.104257406306415
0.0939269644067302
0.0812163241276207
0.0643759969110201
0.0438051310467827
0.0164928143201387
-0.0160409915698439
-0.0563100149124387
-0.103930340103186
-0.158298542729469
-0.21886711227821
-0.285128151907261
-0.354046343142364
-0.42386786868989
-0.489834327684081
-0.547931746280266
-0.597306129894883
-0.632147129604751
-0.655397199787076
-0.667399409703143
-0.672830040271226
-0.671611803080357
-0.664221444046679
-0.652141348834828
-0.635895840304768
-0.615995284269618
-0.593016494292741
-0.567899957539439
-0.540241900430122
-0.511914448481059
-0.482028270742257
-0.451754888484296
-0.420590392275183
-0.390834430303865
-0.360604771958142
-0.332493332300911
-0.304792232535847
-0.279851090232371
-0.255988081254525
-0.23447247086236
-0.214336060103869
-0.196228894932979
-0.179419530102716
-0.163868349497323
-0.149752025660457
-0.136424840168614
-0.124171923900114
-0.112561923189038
-0.101801128619624
-0.0914568902432212
-0.081790568247843
-0.0725544290503132
-0.0637253829777178
-0.0554042714427584
-0.0473518749851508
-0.0397910984272829
-0.032549357463456
-0.0257237281872646
-0.0193014720828232
-0.0133080840934944
-0.00778607615180336
-0.00278482079659742
0.00169297268315867
0.00552280646331162
0.00867803476440369
0.0110603007567796
0.0125173830446146
0.0128341528663474
0.0128585441572758
0.0126683629762434
0.0123039034296227
0.0118325983320575
0.0112883787127623
0.0107002957474002
0.0100906244117356
0.00947577700256466
0.00886803562546386
0.00827627318555568
0.00770669021726891
0.00716336470335174
0.0066487238042164
0.00616394549919821
0.00570921221093209
0.00528403175122328
0.00488733385791279
0.00451770759864717
0.00417344619174976
0.00385269840974003
0.0035534440471202
0.00327371823791931
0.00301126212588728
0.00276435943263273
0.00253014385100811
0.00230809034522572
0.00209284129505702
0.00188883719344475
0.00168017612398201
0.00149242027168894
0.0012648357383588
0.00111365919246701
0.000786984558752526
0.000788172239966423
6.41089506442955e-05
0.000693400557115802
0.0740486310628696
0.0737723984152641
0.0736699652976394
0.0736568202867687
0.0736937640374839
0.0738045657322684
0.0739958671130213
0.0742708241366144
0.0746371045950944
0.0751037428993552
0.0756809698521773
0.0763809477290136
0.0772179844021696
0.0782088202056638
0.0793730395846322
0.080733625365081
0.0823174978144657
0.084156653668403
0.0862883612649302
0.0887589119958
0.0916159367576131
0.0949328210202041
0.0988072134278526
0.102888928984313
0.106972391596612
0.110910778136211
0.114541821409608
0.117787088082726
0.120385735300067
0.12241246021665
0.123519661437165
0.123666141352668
0.122740812217499
0.120451914705383
0.116610771628405
0.110934087784767
0.103386626990991
0.0929423083651266
0.0800849576841692
0.0630997697431775
0.0423541089315962
0.0149393841066124
-0.0176928176888938
-0.0579640344662295
-0.105473965677721
-0.159629320840379
-0.219870709902026
-0.285650920084446
-0.353986843354628
-0.423115201512016
-0.488403245376148
-0.545935360945981
-0.594846376632515
-0.629527456330685
-0.652812271955975
-0.665011795348164
-0.670630033916558
-0.669617440042422
-0.662453459634931
-0.650589196543167
-0.634549308909107
-0.614846716699899
-0.592052080361407
-0.56710200339843
-0.539607138480302
-0.51141114269714
-0.481654014914302
-0.451494707771302
-0.420434610715992
-0.390753441741136
-0.360595157750277
-0.33252816684666
-0.304862222676944
-0.279936747694773
-0.256082664527473
-0.234568639596879
-0.214430993637171
-0.196321763617486
-0.179508793554511
-0.163955568103361
-0.14983990396369
-0.136510157134473
-0.124258874825345
-0.112649361259964
-0.101890059180894
-0.091547096195074
-0.0818846333408735
-0.0726505164956147
-0.0638250440265818
-0.055508777807434
-0.0474606503099884
-0.039907376737329
-0.0326720483885786
-0.0258553110120219
-0.0194434766739378
-0.0134625101870644
-0.00795504227239893
-0.00297036159621521
0.00148809783773617
0.00529579717542993
0.0084270463747209
0.0107840283328506
0.0122288537315256
0.0125611090258165
0.0126106719456702
0.0124404619857812
0.0120949096065371
0.0116411511614536
0.0111129837664978
0.0105396848632535
0.00994357318453644
0.00934114416753827
0.00874475845910016
0.00816336064513773
0.00760322322610559
0.00706849452514164
0.00656167028392447
0.00608399459567158
0.00563571220656095
0.00521639003487751
0.00482501195966407
0.00446021789785887
0.00412034690966386
0.00380359040315991
0.00350796597256093
0.00323154503108243
0.00297209759849228
0.00272794225567136
0.0024962264783596
0.00227647514301833
0.00206330079995054
0.00186127367559443
0.00165429451527298
0.00146840366261177
0.00124197585647858
0.00109320336844005
0.000766337190892057
0.000773197309633846
4.12974875331341e-05
0.000707596334573343
0.0740413474537702
0.0737652430451168
0.0736648880394352
0.0736520177514177
0.0736889804537104
0.0737999344392374
0.073991208198254
0.0742659746449186
0.0746319356479829
0.0750980993926748
0.075674670149923
0.0763737794308289
0.0772096896067571
0.0781990777788719
0.0793614399524618
0.0807196320803739
0.0823003853539294
0.0841353998338413
0.0862614563624146
0.0887238521650902
0.0915687827897927
0.0948629363229081
0.0986977184713106
0.102737303748457
0.106779683674003
0.110678455634015
0.114270373294795
0.117474768981959
0.120033266793666
0.122011603362991
0.123069046069602
0.123158472605539
0.122165082275771
0.119799376419449
0.115872684984047
0.110098394216776
0.10243236372034
0.0918711713903808
0.0788629407814277
0.0617304274840619
0.0408085464285445
0.0132939389104767
-0.0194323166624587
-0.0596963727007807
-0.107083045200424
-0.161009309554366
-0.220902705975414
-0.28617627221502
-0.353899987702978
-0.422301370352145
-0.48687475646738
-0.543804325063872
-0.592213782604409
-0.626701364269484
-0.649993323965409
-0.662371250324604
-0.668163544203505
-0.667350567175017
-0.660416880575233
-0.648779176055638
-0.632961426701183
-0.613478180197772
-0.590891596277168
-0.566131930689107
-0.538826582805525
-0.510783994556429
-0.48117915046105
-0.451154867590747
-0.420220674387605
-0.390629094736638
-0.360559024941962
-0.332546070646984
-0.304924968913796
-0.280018327212149
-0.256175902547738
-0.234662689974784
-0.21452274402116
-0.19641006884731
-0.179591237743377
-0.16403423699598
-0.149918665172206
-0.136585167996177
-0.124335009844703
-0.112725977073034
-0.101968428451616
-0.0916264237153881
-0.0819687099681311
-0.0727368798435266
-0.0639153966970747
-0.0556048427969385
-0.0475611690489403
-0.0400163311488874
-0.0327881403444472
-0.0259810563162807
-0.0195805372838405
-0.0136128430225431
-0.00812095176989701
-0.00315399933995483
0.0012840693556807
0.0050685742868089
0.00817502694812355
0.0105069586893789
0.0119400038684741
0.0122867492321604
0.012359473136925
0.0122073528681417
0.011879118915307
0.0114417076419774
0.0109287639110768
0.0103697060447144
0.00978682551649572
0.00919664761110312
0.00861157242629339
0.00804058750554418
0.00749001531568848
0.00696405730040295
0.00646526409039406
0.00599493494908286
0.00555336821373762
0.00514018289027141
0.00475441147006557
0.00439474029818173
0.00405955084672642
0.00374707447544917
0.00345536457144355
0.00318252728738902
0.00292636055819791
0.00268521699023329
0.0024562578558212
0.0022390574124807
0.00202819990718775
0.00182838439378374
0.00162331955501295
0.00143952135791737
0.00121448739655074
0.00106837323108118
0.000741563379532478
0.000754706975164705
1.49121089331668e-05
0.000720651684641985
0.0740325216404567
0.0737566145100351
0.0736582633745989
0.0736456249426412
0.0736825261347941
0.0737935086427755
0.0739845963997226
0.0742589772559082
0.074624382981852
0.0750897901668147
0.0756653686893149
0.0763632085200511
0.0771975122018898
0.0781848744723689
0.0793446771319473
0.0806996135219863
0.0822761756153012
0.0841056906909192
0.0862243431544891
0.0886762419217316
0.0915059357753683
0.0947732632677681
0.0985629355587003
0.102554301028776
0.106549304223809
0.110402239182371
0.113949215664961
0.117107248599578
0.119620966352253
0.121546393294578
0.122550396231039
0.122579405871266
0.121514805309031
0.119069595221091
0.115054736173311
0.10918043104048
0.101393094763797
0.0907130983137614
0.0775512955689411
0.0602708548141399
0.0391735021142317
0.0115636638651716
-0.0212498675098172
-0.0614949733242586
-0.108743557446743
-0.162422819272409
-0.221946693880979
-0.286688874151203
-0.353773846262105
-0.421420947324204
-0.485252872962031
-0.541554167291051
-0.589437235678553
-0.623709409316252
-0.646989105299533
-0.659529613467028
-0.665482497217266
-0.66485904561861
-0.658151750161583
-0.646742036138545
-0.631153385993399
-0.611902185549029
-0.58954065824353
-0.564990490861681
-0.537897745153093
-0.510028961881917
-0.480598922693734
-0.450730824537085
-0.419945017323056
-0.390458897990673
-0.360495606656277
-0.33254775375941
-0.304983191511755
-0.280099540718228
-0.256272713615158
-0.234759934939434
-0.214616848185282
-0.196498876896609
-0.179671667819997
-0.16410861326646
-0.149991821193204
-0.136652889016675
-0.124402754223256
-0.112793669042403
-0.102037669954571
-0.0916959644447514
-0.0820434279372619
-0.0728138202325463
-0.0639964065198609
-0.05569209983302
-0.047652796550697
-0.0401169662274491
-0.0328963258996212
-0.0260993274386045
-0.0197106859463982
-0.0137567546136821
-0.00828108222321083
-0.00333258280079269
0.00108448891977903
0.00484524087992005
0.00792660459404704
0.010234240327815
0.0116563854140512
0.012016993584006
0.0121112219271
0.011975558797396
0.0116630168049958
0.0112405416369262
0.01074169777683
0.0101960096464818
0.00962569919751068
0.0090472798111481
0.00847315671165067
0.00791233368775106
0.00737116194012625
0.00685387902526899
0.00636307668260723
0.00590009810366328
0.00546528609124157
0.00505830421075885
0.00467822751783011
0.00432378377534045
0.00399339287395413
0.0036853228297199
0.00339766028070872
0.00312854391957045
0.00287579827679544
0.00263780822963869
0.00241174917468539
0.00219724210664127
0.00198884745119745
0.00179138494914722
0.00158839027031603
0.00140682360168443
0.00118337832331499
0.00104006137237143
0.000713617795414313
0.000733360998243657
-1.37265208153027e-05
0.000732171384084758
0.0740220260958949
0.0737463952536676
0.0736499318564304
0.0736374921011237
0.0736742506913725
0.073785128103116
0.0739758604472005
0.0742496447835249
0.0746142374655029
0.0750785783353648
0.0756527946742571
0.0763489236721818
0.0771810931562142
0.0781657955200546
0.0793222714057505
0.0806730141986752
0.0822442246163131
0.0840667789631304
0.086176155889558
0.0886150895546202
0.0914262821342713
0.0946626971089393
0.0984019955545918
0.10233920569534
0.106280540082969
0.11008123949744
0.11357712489879
0.116682848777576
0.11914660319324
0.121014084907421
0.121960457430811
0.121925211195191
0.120785941854094
0.118258323580472
0.114152591458198
0.108175983635319
0.100264932166741
0.0894646778911693
0.0761474461131132
0.0587196188484321
0.0374490010640296
0.00975006311237184
-0.0231421435195978
-0.0633545618220925
-0.110448407631071
-0.163860820446573
-0.222991958009948
-0.287177079221324
-0.353596985362618
-0.420464341545391
-0.483531792557049
-0.539184714809715
-0.586524162354221
-0.620567234961171
-0.643822819292487
-0.656515949583474
-0.662620391468432
-0.662178174422196
-0.655691727942428
-0.644507406167199
-0.629149014288702
-0.610135792390855
-0.588009750865856
-0.56368261272617
-0.536821022461883
-0.509143781901212
-0.479909283603713
-0.450217930125349
-0.419603325301065
-0.390239346093171
-0.360402887171439
-0.33253266822071
-0.305038417692707
-0.280183116342766
-0.256377270373258
-0.234865152748929
-0.214718536550686
-0.196593083958149
-0.17975477514008
-0.164182904609007
-0.150062872927631
-0.136716337757286
-0.124464544220638
-0.112854406557099
-0.102099292555129
-0.0917569291584582
-0.0821096306101526
-0.0728819123795105
-0.0640683934357854
-0.0557706223688545
-0.0477354295637296
-0.0402089410638935
-0.0329960676668999
-0.0262093768905929
-0.0198329810415282
-0.0138930949612404
-0.00843405669291074
-0.00350447952982409
0.000891258950768192
0.00462800545510716
0.00768431448858865
0.00996872146417956
0.0113810480775457
0.0117551289792869
0.0118695494332665
0.0117490639079912
0.0114507379760046
0.0110417898326239
0.0105558290645071
0.0100224930291391
0.00946392159824277
0.00889658936575671
0.00833288010140707
0.00778179123438915
0.00724968366215292
0.00674081527058118
0.00625780578661381
0.00580203137634599
0.00537387026993311
0.0049730229672239
0.00459860088700995
0.00424936795026088
0.00392377822469265
0.00362013278537381
0.00333654873423896
0.00307119474340665
0.00282192052546886
0.00258714086079558
0.00236404611927311
0.0021522996519724
0.00194644553952502
0.00175140947698012
0.0015505864666285
0.00137132211200284
0.00114963551163702
0.00100915586324528
0.000683466852266828
0.000709830628326128
-4.32908516302629e-05
0.000741832203537514
0.0740097136633031
0.0737344442858785
0.0736397146520816
0.073627444967276
0.073663976418931
0.0737746039163067
0.0739647996420303
0.0742377605445135
0.0746012609136575
0.075064198541518
0.0756366492020116
0.0763305852820557
0.0771600441791789
0.0781413949025394
0.0792937086295231
0.0806392397250004
0.0822038436644434
0.0840178656698353
0.0861159691563501
0.0885393363871612
0.0913286337507043
0.0945300297327446
0.0982138772290829
0.102091136921329
0.105972546574298
0.10971451304082
0.113152922331009
0.116200033058509
0.118608134064895
0.120412145933171
0.121296112646037
0.121192216569077
0.119974353269403
0.117361020115846
0.113161393645545
0.107080039177977
0.0990428881640529
0.0881210608835783
0.0746470146148897
0.057073057937331
0.0356324103526616
0.00785155890926248
-0.0251093289451837
-0.0652738184801796
-0.112194818585292
-0.165318911869766
-0.224032537290511
-0.28763376919862
-0.353361721142154
-0.419424198755904
-0.481705409860268
-0.536692230033344
-0.583474422483012
-0.617278996286202
-0.640503118985683
-0.653343553594065
-0.659595325895715
-0.659330092888446
-0.653060867014373
-0.642099183767008
-0.626970050364444
-0.608196873258148
-0.586312029725035
-0.562216667005943
-0.535600029177778
-0.508128798494645
-0.479107852734734
-0.449612309276867
-0.419191202001652
-0.389966420490826
-0.360277882502976
-0.332499194816933
-0.305091059077556
-0.280270856075356
-0.25649306142636
-0.23498272553253
-0.214832943027787
-0.196697684259879
-0.179845496532021
-0.164261659726817
-0.150135677133176
-0.136778912505368
-0.124523167491751
-0.112910523297399
-0.102155141012703
-0.0918108786373557
-0.0821685432567038
-0.0729421503249821
-0.0641321463397636
-0.0558410079472331
-0.0478095660326123
-0.0402926041011089
-0.0330876166564641
-0.0263113441437455
-0.0199474782997586
-0.0140218336188031
-0.00857974816860731
-0.0036694402482532
0.000704761546368794
0.00441741611911892
0.00744889218510031
0.00971131088928434
0.0111149933119278
0.0115023597827944
0.0116360248921268
0.011529873683658
0.0112445842306556
0.0108479262301408
0.0103737046837242
0.00985170723847418
0.00930400679787144
0.00874702880370069
0.00819311912478993
0.00765125245902766
0.00712778427262297
0.00662697959440399
0.00615147478154259
0.00570266922113892
0.0052809683708466
0.00488610257236745