/*--------------------------------*- C++ -*----------------------------------*\
| =========                 |                                                 |
| \\      /  F ield         | OpenFOAM: The Open Source CFD Toolbox           |
|  \\    /   O peration     | Version:  3.0.1                                 |
|   \\  /    A nd           | Web:      www.OpenFOAM.org                      |
|    \\/     M anipulation  |                                                 |
\*---------------------------------------------------------------------------*/
FoamFile
{
    version     2.0;
    format      ascii;
    class       surfaceScalarField;
    location    "7000";
    object      phi;
}
// * * * * * * * * * * * * * * * * * * * * * * * * * * * * * * * * * * * * * //

dimensions      [0 3 -1 0 0 0 0];

internalField   nonuniform List<scalar> 
27760
(
0.000117146098003309
7.7512034380028e-08
0.000116726258823859
4.19839179449869e-07
0.00011619550867715
5.30750146706483e-07
0.000115653998198307
5.41510478844412e-07
0.000115041206132413
6.12792065895594e-07
0.000114343847787293
6.97358345119646e-07
0.000113563150991614
7.80696795677424e-07
0.000112688604571699
8.745464199184e-07
0.000111706551779065
9.82052792635119e-07
0.000110601895927824
1.10465585124207e-06
0.000109356352984467
1.24554294335691e-06
0.000107948002998209
1.40834998625951e-06
0.000106350732529855
1.59727046835342e-06
0.000104533208915099
1.81752361475433e-06
0.000102457393850418
2.07581506468224e-06
0.000100076738280854
2.38065556956341e-06
9.73329315491848e-05
2.74380673166681e-06
9.41515043862799e-05
3.18142716290527e-06
9.04349075266767e-05
3.71659685960473e-06
8.60387080480038e-05
4.39619947867182e-06
8.07434994867722e-05
5.29520856122824e-06
7.49600527086898e-05
5.7834467780829e-06
7.02456059124996e-05
4.71444679618953e-06
6.69136514934222e-05
3.33195441907911e-06
6.49498005948534e-05
1.96385089856989e-06
6.43021474576227e-05
6.47653137230671e-07
6.4929412980082e-05
-6.27265522464114e-07
6.69568146271039e-05
-2.02740164702297e-06
6.98354664207829e-05
-2.87865179367767e-06
7.41181541158248e-05
-4.28268769504049e-06
7.91332426395683e-05
-5.01508852374409e-06
8.4787271512205e-05
-5.65402887263773e-06
9.12866408859156e-05
-6.49936937371162e-06
9.83716095089498e-05
-7.0849686230335e-06
0.00010569948289844
-7.32787338948799e-06
0.000113098231311001
-7.39874841256111e-06
0.000121290953131042
-8.19272182003928e-06
0.000128695582506324
-7.40462937528176e-06
0.000137061053577007
-8.36547107068234e-06
0.000145068524139114
-8.00747056210669e-06
0.000154911175236661
-9.84265109754439e-06
0.000162941013134282
-8.02983789762098e-06
0.000171479469020077
-8.53845588579577e-06
0.000178640983253237
-7.16151423316077e-06
0.00018387147753526
-5.2304942820233e-06
0.000187377461387638
-3.50598385237888e-06
0.000189277524382268
-1.90006299463172e-06
0.000188667960687433
6.09563694834673e-07
0.000185809264051366
2.85869663606939e-06
0.000179533510141308
6.27575391005329e-06
0.000170266031655902
9.26747848540537e-06
0.00015886981995362
1.13962117022716e-05
0.000144662966401267
1.42068535523563e-05
0.000130479582037378
1.41833843638843e-05
0.000117295831644411
1.31837503929661e-05
0.000106599943194013
1.06958884503985e-05
9.72589504696682e-05
9.34099272435e-06
8.89051619040263e-05
8.35378856565598e-06
8.15933853009795e-05
7.31177660304759e-06
7.49495889117026e-05
6.64379638927589e-06
6.87029443579267e-05
6.2466445537638e-06
6.27678545414114e-05
5.93508981653009e-06
5.70161631431481e-05
5.75169139825652e-06
5.11637671090569e-05
5.85239603408165e-06
4.55910108552838e-05
5.57275625375899e-06
3.953967895029e-05
6.05133190499998e-06
3.32619702342158e-05
6.27770871608606e-06
2.67303105568631e-05
6.53165967736058e-06
2.06084596539987e-05
6.12185090285514e-06
1.3826721777461e-05
6.7817378765388e-06
7.76254162797562e-06
6.06418014949266e-06
1.57329681654399e-06
6.18924481142289e-06
-3.26569307476775e-06
4.83898989131584e-06
-8.1722657008012e-06
4.90657262602955e-06
-1.20107199892125e-05
3.83845428840294e-06
-1.54600647680594e-05
3.4493447788428e-06
-1.79894569372567e-05
2.52939216918952e-06
-2.04610283237569e-05
2.47157138650114e-06
-2.23236245466806e-05
1.86259622293354e-06
-2.35069583589041e-05
1.18333381221832e-06
-2.47917469497711e-05
1.28478859086802e-06
-2.54675476622444e-05
6.75800712473549e-07
-2.59818996695879e-05
5.14352007341721e-07
-2.60507294737218e-05
6.88298041325117e-08
-2.60498226412081e-05
-9.06832510647016e-10
-2.53672579970603e-05
-6.82564644147995e-07
-2.45932265362071e-05
-7.74031460851071e-07
-2.34065899436011e-05
-1.18663659260859e-06
-2.16751174373073e-05
-1.73147250629301e-06
-1.97479822331605e-05
-1.92713520414585e-06
-1.70088072632067e-05
-2.73917496995691e-06
-1.39731266905769e-05
-3.0356805726306e-06
-1.02982314121501e-05
-3.67489527842978e-06
-6.02595535670852e-06
-4.27227605544238e-06
-1.12929380690272e-06
-4.89666154980539e-06
4.47498270847671e-06
-5.60427651537751e-06
1.07345032805278e-05
-6.25952057205321e-06
1.76065649152483e-05
-6.87206163472046e-06
2.53225468936619e-05
-7.71598197841459e-06
3.37335442367848e-05
-8.41099734312148e-06
4.30599749213515e-05
-9.32643068456874e-06
5.36973801318956e-05
-1.06374052105441e-05
6.46503477131762e-05
-1.09529675812813e-05
7.28377985897728e-05
-8.18745087659571e-06
7.91127504280822e-05
-6.27495183831147e-06
8.42708174299054e-05
-5.15806700182326e-06
8.86144948259834e-05
-4.34367739607839e-06
9.23332999836011e-05
-3.71880515761645e-06
9.5532532062681e-05
-3.19923207908091e-06
9.82896396362305e-05
-2.75710757354856e-06
0.000100667899300866
-2.37825966463624e-06
0.000102720751112114
-2.05285181124585e-06
0.000104494252294932
-1.77350118281902e-06
0.000106028392829373
-1.53414053443988e-06
0.00010735751213879
-1.32911930941723e-06
0.000108511360964173
-1.15384882538014e-06
0.000109515286897531
-1.00392593336015e-06
0.00011039119054114
-8.75903643608627e-07
0.000111157701261064
-7.66510719924875e-07
0.000111830846021974
-6.73144760909316e-07
0.00011242435846942
-5.93512447446089e-07
0.000112949983236953
-5.25624767532643e-07
0.000113417870678431
-4.67887441477522e-07
0.000113836746167984
-4.18875489552101e-07
0.000114214117794045
-3.77371626061696e-07
0.00011455671052417
-3.42592730124e-07
0.000114869964258489
-3.13253734319353e-07
0.000115159693864204
-2.89729605715146e-07
0.000115429115155499
-2.6942129129622e-07
0.000115685391565327
-2.56276409827698e-07
0.000115926780985561
-2.41389420234508e-07
0.000116169478227352
-2.42697241789909e-07
0.000116393432540877
-2.23954313525823e-07
0.000116654779099483
-2.61346558605051e-07
0.000116856421559933
-2.01642460450928e-07
0.000117225506829503
-3.69085269568811e-07
0.0001173256875935
-1.00180763996236e-07
0.000118164861371309
-8.39173777807819e-07
0.000117437919034687
7.26942336621287e-07
-3.08600538446755e-06
0.000364071901448344
2.80006295865761e-07
0.000363421786476076
1.06995415171812e-06
0.000362513021635656
1.43951498712528e-06
0.000361406572463146
1.64795965135173e-06
0.000360108120632709
1.91124389633364e-06
0.000358613818470959
2.19166050686727e-06
0.000356910685035218
2.48383023141753e-06
0.000354977980324846
2.80725113028853e-06
0.000352788815519602
3.17121759787971e-06
0.000350309640451166
3.58383091967505e-06
0.000347499421123291
4.05576227123102e-06
0.000344308559062816
4.59921204673158e-06
0.000340677198829974
5.22863070119372e-06
0.0003365328418959
5.96188054882698e-06
0.000331786887419623
6.82176954095897e-06
0.000326330053241297
7.83748974789027e-06
0.000320024855703371
9.04900426959663e-06
0.000312694216906327
1.05120659599509e-05
0.000304106468057121
1.23043457088102e-05
0.0002939178787336
1.45847888021977e-05
0.000281665037507079
1.75480497877516e-05
0.000267984670145674
1.94638141394855e-05
0.000255349859581428
1.73492573604385e-05
0.000245025911944132
1.36559020563733e-05
0.000237540566348501
9.44919649420213e-06
0.000232964322803923
5.22389668180673e-06
0.000231359435942133
9.77621339337831e-07
0.000232846514280328
-3.51447998521792e-06
0.000236716993184195
-6.74913069754084e-06
0.000243482945631752
-1.10486401425935e-05
0.000252176072282174
-1.37082151741646e-05
0.000262486318842504
-1.59642754329636e-05
0.000274511562465185
-1.85246129963851e-05
0.000287873632706276
-2.04470388641229e-05
0.000301920984985585
-2.1375225668798e-05
0.000316375681786593
-2.18534452135673e-05
0.000331889133012682
-2.37061730461262e-05
0.000346697822420067
-2.22133187826708e-05
0.000362570321883671
-2.42379705342861e-05
0.000378347708928539
-2.37848576069732e-05
0.000396616953243203
-2.81118954122089e-05
0.000413309907492943
-2.4722792147361e-05
0.000430746509689303
-2.59750580821565e-05
0.000446690966735604
-2.31059712794601e-05
0.000460157256795319
-1.86967843417398e-05
0.000470947759068984
-1.42964861260484e-05
0.000478973079635875
-9.92538356152085e-06
0.000482927584205316
-3.34494087460242e-06
0.000482575331999982
3.21094884140664e-06
0.000475785184589083
1.30659013209497e-05
0.000462371479789704
2.26811832847933e-05
0.000442880551936308
3.08871395556763e-05
0.000416467383654514
4.06200218341515e-05
0.000387166706458942
4.34840615594533e-05
0.000357842419448978
4.25080374029088e-05
0.000332057329077726
3.64809788216619e-05
0.000309132088766806
3.22662330352875e-05
0.000288557208282203
2.89286690502595e-05
0.000270223135992805
2.56458488924097e-05
0.000253495319151942
2.3371613230161e-05
0.000237781077618603
2.19608860871192e-05
0.000222777533476001
2.09386339591165e-05
0.000208106348581557
2.04228762926891e-05
0.00019328238974226
2.0676354873364e-05
0.000178690200354865
2.01649456411591e-05
0.000163086764598447
2.16547676614205e-05
0.000146562014783094
2.28024585314238e-05
0.000129227273803788
2.38664006566696e-05
0.000112010640776859
2.33384839298015e-05
9.34545415203295e-05
2.53378371330614e-05
7.56013239011925e-05
2.39173977686144e-05
5.77304961670178e-05
2.40600725455991e-05
4.22887408781044e-05
2.02807451802229e-05
2.72960314427259e-05
1.98992820614063e-05
1.46393154137025e-05
1.64951703174307e-05
3.48835882412689e-06
1.46003013684178e-05
-5.38928506080242e-06
1.14070360541184e-05
-1.35357894612357e-05
1.06180757869206e-05
-1.97895035323582e-05
8.11631029405625e-06
-2.42158032068899e-05
5.60963348675606e-06
-2.82435625616961e-05
5.31254794567364e-06
-3.06265009489827e-05
3.0587390997602e-06
-3.21069143023118e-05
1.99476536067239e-06
-3.23753342939779e-05
3.37249795809765e-07
-3.18817465935744e-05
-4.94494532911794e-07
-2.97097973334779e-05
-2.85451390423808e-06
-2.69699064773162e-05
-3.5139223170174e-06
-2.29891345653968e-05
-5.16740850452914e-06
-1.76600187945351e-05
-7.06058827715166e-06
-1.14752836551631e-05
-8.11187034351661e-06
-3.44311467802277e-06
-1.07713439470961e-05
5.52837878904547e-06
-1.20071740396968e-05
1.59961559307015e-05
-1.41426724200847e-05
2.79032138353109e-05
-1.61793339600509e-05
4.12613313901808e-05
-1.82547791046766e-05
5.61768678417187e-05
-2.05198129669149e-05
7.25050845051878e-05
-2.25877372355232e-05
9.01785398386889e-05
-2.45455169682216e-05
0.000109493595651149
-2.70310377908755e-05
0.000130244535695194
-2.91619373871654e-05
0.000152736873991892
-3.18187689812691e-05
0.000177550764897447
-3.54512961160985e-05
0.000202964492105998
-3.6366694789833e-05
0.00022445063608581
-2.96735948564072e-05
0.000242115976441644
-2.39402921941455e-05
0.000256932282436441
-1.99743729966198e-05
0.00026964564267466
-1.70570376342985e-05
0.000280718482386456
-1.47916448694119e-05
0.000290412037030383
-1.28927867230082e-05
0.000298914996024158
-1.12600665673236e-05
0.000306378822027203
-9.84208566768167e-06
0.000312933386126755
-8.60741591079682e-06
0.000318692447176552
-7.53256223261604e-06
0.000323756743185454
-6.59843654334063e-06
0.000328214376561222
-5.78675268518476e-06
0.000332143381583478
-5.082853847636e-06
0.00033561152370556
-4.47206805544257e-06
0.000338678552794676
-3.94293273272459e-06
0.000341396310236064
-3.48426816131328e-06
0.000343810143191107
-3.08697771595065e-06
0.000345959719626322
-2.74308888266124e-06
0.000347879427321338
-2.44533246254771e-06
0.000349599583059568
-2.18804317970845e-06
0.000351146469128759
-1.96576155874304e-06
0.000352543296853081
-1.77419935038303e-06
0.000353810484617168
-1.60978049421071e-06
0.000354965897807674
-1.46866692482597e-06
0.000356025966136467
-1.34979793450844e-06
0.000357004390408184
-1.24784556301314e-06
0.000357915945417075
-1.16783141871815e-06
0.000358769923828878
-1.09536783203822e-06
0.000359584736285111
-1.05750969802278e-06
0.000360359783451068
-9.99001479482831e-07
0.000361135258716851
-1.03682182438806e-06
0.000361873361626818
-9.39745370417962e-07
0.000362710103052132
-1.20582669488345e-06
0.000363434255983736
-8.24333695599169e-07
0.00036467412916366
-2.07904695773082e-06
0.000364902018078682
4.99053421598599e-07
-7.04279534945315e-06
0.000580831178406219
4.873695392335e-07
0.000580231560278449
1.66957227949265e-06
0.000579331117423591
2.3399578419854e-06
0.000578141562376655
2.83751469829288e-06
0.000576678717985388
3.37408828759819e-06
0.000574948863698067
3.92151479418994e-06
0.000572940664577061
4.4920293524217e-06
0.00057063285609807
5.1150596092798e-06
0.0005679960819958
5.80799170014766e-06
0.00056499197312619
6.58793978928817e-06
0.000561572467117927
7.47526827949523e-06
0.000557678583655882
8.49309550877702e-06
0.000553238375429319
9.66883892775759e-06
0.000548164040877976
1.10362151001708e-05
0.000542347741188876
1.26380692300585e-05
0.000535655972699594
1.45292582371697e-05
0.000527920460104129
1.67845168650591e-05
0.000518924406540849
1.95081195232301e-05
0.000508383559126352
2.28451931233048e-05
0.000495886180321908
2.70821676066369e-05
0.000480890527677965
3.25437024316919e-05
0.000463851836634427
3.65025051830249e-05
0.000446967467044468
3.42336269503959e-05
0.000431851652673136
2.87717164277055e-05
0.000419527910302224
2.1772938865118e-05
0.000410453865829903
1.42979411541321e-05
0.000404872602996933
6.55888417230886e-06
0.000402914855867572
-1.55673285585659e-06
0.000404085134150546
-7.91940898051265e-06
0.000408748732382761
-1.57122383748074e-05
0.000416121094680836
-2.10805774722411e-05
0.000425818710039112
-2.56618907912455e-05
0.000437780522043755
-3.0486425001029e-05
0.000451648529226385
-3.43150460467509e-05
0.000466773188884147
-3.64998853265601e-05
0.000482803496349625
-3.78837526790502e-05
0.000500137254320323
-4.10399310168262e-05
0.000517385422760248
-3.9461487222595e-05
0.000535775537492612
-4.26280852666484e-05
0.000554521555929973
-4.25308760443366e-05
0.000575851695510868
-4.94420349931028e-05
0.000596728516489029
-4.55996131255226e-05
0.000618814576537182
-4.80611181303094e-05
0.000640321505034875
-4.46128997771519e-05
0.000660141589995111
-3.85168693019759e-05
0.000677677947538771
-3.18328436697074e-05
0.000692552936125653
-2.48003721484129e-05
0.000703378029859852
-1.4170034608804e-05
0.000709504048601049
-2.91506989977917e-06
0.000708486517954348
1.40834319676447e-05
0.000699393833703405
3.17738675357249e-05
0.000682028590433403
4.8252382825661e-05
0.000655229924430263
6.74186878373033e-05
0.000622384819084643
7.63291669050826e-05
0.000586867188546637
7.80256679409051e-05
0.000553213892694611
7.01342746736808e-05
0.000522088310324997
6.33918154048867e-05
0.000493595270083223
5.74217092920286e-05
0.000467745960069033
5.14951589066177e-05
0.00044397792599891
4.71396473002718e-05
0.000421646475569024
4.42923365170054e-05
0.000400321564765406
4.22635447627518e-05
0.000379473048248352
4.12713928097656e-05
0.000358557853726454
4.15915493952687e-05
0.000337711092416306
4.10117069512996e-05
0.000315691575902377
4.36742841753558e-05
0.000292256628130976
4.62374063028247e-05
0.000267527819267868
4.85952095197688e-05
0.000242196152042153
4.86701511555007e-05
0.000215152485351326
5.23815038238814e-05
0.000188054868413685
5.10150147062537e-05
0.000160888094079144
5.12268468801547e-05
0.000135971205981973
4.51976332774014e-05
0.000112052256267439
4.38182317759324e-05
9.0860490623059e-05
3.76869359618185e-05
7.21269580762419e-05
3.33338339152381e-05
5.64495671716607e-05
2.7084426958707e-05
4.2447283856824e-05
2.46203591017619e-05
3.13935469454748e-05
1.91700472054009e-05
2.3079594748583e-05
1.39235856836542e-05
1.60906306307439e-05
1.23015120635044e-05
1.15350878506934e-05
7.61428187980201e-06
8.78979006735293e-06
4.74006314401166e-06
7.88131109912016e-06
1.24572876403944e-06
8.51036970027067e-06
-1.12355313406224e-06
1.14365924808031e-05
-5.78073668477079e-06
1.54765605628099e-05
-7.55389039902261e-06
2.12791050890571e-05
-1.09699530307735e-05
2.88586821283428e-05
-1.46401653164415e-05
3.77983061924394e-05
-1.70514944076119e-05
4.88871889221978e-05
-2.18602266768548e-05
6.13580185423236e-05
-2.44780036598241e-05
7.55634585438787e-05
-2.834811242164e-05
9.15015151132261e-05
-3.21173905293977e-05
0.000109145882340719
-3.58991463321709e-05
0.000128565595873044
-3.99395264992401e-05
0.0001496108613347
-4.36330026971799e-05
0.000172205002858554
-4.71396584920748e-05
0.000196558643997807
-5.13846789301292e-05
0.000222541340986406
-5.5144634375764e-05
0.000250354421990766
-5.96318499856299e-05
0.000280525478209635
-6.56223523349675e-05
0.000311708716888877
-6.75499334690754e-05
0.000340109209706871
-5.80740876744002e-05
0.000364912773108475
-4.87438555957512e-05
0.000386579501056558
-4.16411009447023e-05
0.000405706156707556
-3.61836932852978e-05
0.00042273619296365
-3.18216811255058e-05
0.000437960376452294
-2.81169702116528e-05
0.000451596695717086
-2.48963858321151e-05
0.000463820893010192
-2.20662829607869e-05
0.000474784423536043
-1.95709464366475e-05
0.000484620908406653
-1.73690471032268e-05
0.00049345079520336
-1.54283233400473e-05
0.000501381275010738
-1.37172324925626e-05
0.000508509862516229
-1.22114413531265e-05
0.000514923071026134
-1.08852765653478e-05
0.000520699356698451
-9.71921840504094e-06
0.000525908403811074
-8.69331527393679e-06
0.000530612686411941
-7.79126031681748e-06
0.000534868289514256
-6.99869198497671e-06
0.000538724808513346
-6.30185146163661e-06
0.000542227115827763
-5.69035049412583e-06
0.000545414762161699
-5.15340789267869e-06
0.000548323531539755
-4.68296872843886e-06
0.000550985249802902
-4.27149875735807e-06
0.000553428534146046
-3.91195126796957e-06
0.000555679334305464
-3.60059809392664e-06
0.000557760793049966
-3.32930430751507e-06
0.000559694939242798
-3.10197761155078e-06
0.000561500582778297
-2.90101136753673e-06
0.00056319904438414
-2.75597130386571e-06
0.00056480411649042
-2.60407358576321e-06
0.000566345232933212
-2.57793826717973e-06
0.000567823151963607
-2.41766440081283e-06
0.0005693105330561
-2.69320778737665e-06
0.000570736346984599
-2.25014762409741e-06
0.000572447554453915
-3.79025442704606e-06
0.000573659663971761
-7.13056096247891e-07
-1.05912187624133e-05
0.000741229535536635
6.57795880954621e-07
0.000740736960456449
2.16214735967707e-06
0.000739944064665914
3.1328536325219e-06
0.000738841389319961
3.94019004424482e-06
0.000737436300932186
4.77917667537278e-06
0.000735730536346254
5.62727938011984e-06
0.000733712764025447
6.50980167323076e-06
0.000731362983722072
7.46483991265726e-06
0.000728652812562883
8.51816285933706e-06
0.000725544492201573
9.69626015059779e-06
0.000721990110194179
1.10296502868905e-05
0.000717930270005842
1.25529356971131e-05
0.000713292016203913
1.43070927296835e-05
0.000707985938291158
1.63422930129279e-05
0.000701901997889061
1.87220096321534e-05
0.000694903936141945
2.1527319984284e-05
0.00068682031078159
2.48681422254145e-05
0.000677431151168568
2.88972791362517e-05
0.00066644928761144
3.38270566804315e-05
0.000653471641662755
4.0059813555323e-05
0.000637948095923939
4.80672481705089e-05
0.000620065276735034
5.4385324371931e-05
0.000601512265258502
5.2786638426925e-05
0.000583830251887777
4.6453729798434e-05
0.000568234666716881
3.73685240360144e-05
0.000555486866761866
2.70457411091466e-05
0.000546074414481317
1.59713364528605e-05
0.000540281632515331
4.23604911013097e-06
0.000537829969058191
-5.46774552337748e-06
0.000539040846432537
-1.69231157491529e-05
0.000543364892258269
-2.54046232979701e-05
0.000550455591823773
-3.27525903567496e-05
0.000560190814794613
-4.02216479718684e-05
0.000572252648020402
-4.6376879272545e-05
0.00058605503275945
-5.03022700656061e-05
0.000601217719288625
-5.30464392082238e-05
0.000617971839559997
-5.77940512881947e-05
0.000635222455103081
-5.67121027656768e-05
0.000653799893977571
-6.12055241411385e-05
0.000673154923527703
-6.18859055944673e-05
0.000695124848538594
-7.14119600039946e-05
0.00071754929564271
-6.80240602296384e-05
0.000741614388132733
-7.21262106203332e-05
0.000766041019378041
-6.90395310224597e-05
0.000789785073258347
-6.22609231822825e-05
0.000812113500035027
-5.41612704463872e-05
0.000832528515537295
-4.52153876506798e-05
0.000849669781768135
-3.13113008396418e-05
0.000862752345033223
-1.59976331648683e-05
0.000869372653041206
7.46312395965284e-06
0.000868056588457402
3.30899321195235e-05
0.000858009445883514
5.82995253995576e-05
0.000837529574672954
8.78985590478548e-05
0.00080877613575609
0.000105082605821942
0.000774501649271335
0.000112300154425671
0.0007392074579799
0.000105428465965109
0.000704561045391959
9.80382279928188e-05
0.000671531579105985
9.04511755779984e-05
0.000640657543058179
8.2369194954435e-05
0.000611776708094291
7.60204822641764e-05
0.000584464073160114
7.1604971451176e-05
0.000558347837210533
6.83797807123098e-05
0.000532899539838786
6.67196901815128e-05
0.000507560842297814
6.69302469362457e-05
0.00048229725682116
6.627529242797e-05
0.000455965912958631
7.0005628037884e-05
0.000428094484273888
7.41088349875717e-05
0.000398668235163506
7.80214586301359e-05
0.000368155222494034
7.91831638249807e-05
0.00033571994191923
8.48167843987037e-05
0.000302594340388126
8.41406162373569e-05
0.000269128178933376
8.46930083348957e-05
0.000237414494024316
7.6911318186456e-05
0.000206917392606823
7.43153331934305e-05
0.000179129944412591
6.54743841560447e-05
0.000154253185747916
5.82105925799145e-05
0.000132834399541374
4.85032131652498e-05
0.000113810933984524
4.36438246586066e-05
9.82476631622637e-05
3.47333180276593e-05
8.60214568185343e-05
2.61497920273807e-05
7.59181551429949e-05
2.24048137390464e-05
6.86463976595499e-05
1.48860393632487e-05
6.38323036463909e-05
9.55415715717017e-06
6.12639046095993e-05
3.81412780083299e-06
6.06968294030958e-05
-5.56477927559462e-07
6.26900558262914e-05
-7.77396310796308e-06
6.62955436914193e-05
-1.11593782641512e-05
7.18961058323367e-05
-1.65705151716891e-05
7.95280765275747e-05
-2.22721360116798e-05
8.88488064343646e-05
-2.63722243144026e-05
0.00010041817092049
-3.34295911629783e-05
0.000113701246834715
-3.77610795740478e-05
0.000128850300002781
-4.34971655897065e-05
0.000145904824626301
-4.9171915152916e-05
0.000164826602225567
-5.48209239314377e-05
0.000185664747102876
-6.07776713765487e-05
0.000208289419173769
-6.62576747680726e-05
0.000232614374355644
-7.14646136739504e-05
0.000258784459258625
-7.755476383311e-05
0.000286716065978141
-8.30762410952802e-05
0.000316528010391152
-8.94437943986413e-05
0.000348670202726733
-9.77645446705486e-05
0.000382084267858542
-0.000100963998600884
0.000413591038202668
-8.95808580185265e-05
0.000441988080592427
-7.71408979855096e-05
0.000467418196814076
-6.70712171663522e-05
0.000490290345010079
-5.90558414813011e-05
0.000510963158471415
-5.24944945868409e-05
0.000529705513777498
-4.68593255177368e-05
0.000546730059771788
-4.19209318264053e-05
0.000562211247967172
-3.75474711561711e-05
0.00057630014810569
-3.36598465751652e-05
0.000589129869798516
-3.01987687960524e-05
0.000600820902532376
-2.71193560739074e-05
0.000611480691366286
-2.43770213264733e-05
0.000621208091275789
-2.19388412626291e-05
0.000630091320138934
-1.97685054284921e-05
0.000638211562559267
-1.78394608253747e-05
0.000645641652025028
-1.6123404739697e-05
0.000652447783184239
-1.45973914760287e-05
0.000658690331016284
-1.32412398170216e-05
0.000664423264760436
-1.2034785205788e-05
0.000669696363967832
-1.09634497015228e-05
0.000674553950345274
-1.001099427012e-05
0.000679036904242403
-9.16592262556761e-06
0.000683181967169202
-8.41656168415636e-06
0.00068702278794518
-7.75277204394777e-06
0.000690590029200852
-7.16783934959882e-06
0.000693911788105505
-6.65106321216832e-06
0.00069701410293402
-6.20429244006589e-06
0.000699921118662664
-5.80802709618e-06
0.000702656129689214
-5.49098233041556e-06
0.000705240693030916
-5.18863692746526e-06
0.000707699233564536
-5.03647880079983e-06
0.000710051485380916
-4.76991621719276e-06
0.000712338455692819
-4.98017809928111e-06
0.000714556586537239
-4.46827846851647e-06
0.000716897981851538
-6.13164974134495e-06
0.000719015354312532
-2.83042855724225e-06
-1.39852312596238e-05
0.000869423003079857
8.03518925957971e-07
0.000869005573912279
2.57957652725556e-06
0.000868301253119672
3.83717442512718e-06
0.000867292596182298
4.94884698161786e-06
0.000865978229198339
6.09354365933196e-06
0.000864351692064404
7.25381651405619e-06
0.000862398151047765
8.46334268986948e-06
0.0008600964019878
9.76658897262184e-06
0.00085741776486467
1.11967999824651e-05
0.000854324829214976
1.27891958002926e-05
0.000850770408618867
1.45840708830002e-05
0.000846696034805765
1.66273095102161e-05
0.000842029850997732
1.89732765377163e-05
0.000836683763459846
2.16883805508146e-05
0.000830549407606812
2.48563654851875e-05
0.000823492812768957
2.85839148221388e-05
0.000815345932877911
3.30150221164615e-05
0.000805894322586199
3.8348889427964e-05
0.00079485964148396
4.48617377826703e-05
0.000781861661571902
5.30577934673808e-05
0.000766372672923959
6.35562368184502e-05
0.000748410659622763
7.23473376731306e-05
0.00072926230104138
7.193499700831e-05
0.000710258297564613
6.54577332752016e-05
0.000692591755107057
5.50350664935696e-05
0.000677154921498958
4.2482574717247e-05
0.000664619826421241
2.85064315305766e-05
0.000655449827750666
1.34060477807072e-05
0.00064957949238889
4.02589838398925e-07
0.000647364752815887
-1.47083761761494e-05
0.000648436004282542
-2.64758747646252e-05
0.000652521505263243
-3.68380913374481e-05
0.0006595055235861
-4.72056662947274e-05
0.000669110997072242
-5.5982352758682e-05
0.000680804507577104
-6.19957805704657e-05
0.000694210949423274
-6.64528810543947e-05
0.000709455585089279
-7.30386869542017e-05
0.000725632145959109
-7.28886636355074e-05
0.000743323133327299
-7.88965115093296e-05
0.00076214750921969
-8.0710281486858e-05
0.00078361770294788
-9.28821537321847e-05
0.000806130609205783
-9.05369664875417e-05
0.000830540943403447
-9.65365448179969e-05
0.000855920154521221
-9.44187421402341e-05
0.000881302489265563
-8.76432579266223e-05
0.000905961567029278
-7.88203482101037e-05
0.000929402716692083
-6.86565373134832e-05
0.000950410578679909
-5.23191628274687e-05
0.000968193296124968
-3.3780350609934e-05
0.000980646747409253
-4.99032732462836e-06
0.00098620733715377
2.75293423750053e-05
0.000983843153640836
6.06637089124964e-05
0.000971526808075789
0.000100214904612915
0.000950261335935944
0.00012634807796179
0.000921726742453488
0.000140834747908117
0.000889614896216075
0.000137540312202527
0.000855800625349859
0.000131852498859031
0.000821764603776867
0.000124487197150982
0.000788595438014948
0.000115538360716355
0.000756666611691392
0.00010794930858773
0.000725951745672165
0.000102319837470388
0.000696309246586434
9.80222797980559e-05
0.000667350023519814
9.56789132481292e-05
0.000638574345140341
9.57059253157136e-05
0.000609884397440426
9.496524012789e-05
0.00058023236713606
9.96576583422661e-05
0.000549031402951051
0.00010530979917258
0.000516116453624589
0.000110936407956602
0.000481783210331256
0.00011351640711831
0.000445317680860109
0.000121282313869847
0.000407669089497913
0.000121789207599559
0.000369294168907641
0.000123067928925171
0.000332143690108961
0.000114061796985134
0.000296149031178775
0.000110309992123613
0.000262727416114554
9.88959992202656e-05
0.000232383376610114
8.85546320843502e-05
0.00020575224130655
7.51343484688111e-05
0.000182040729890521
6.7355336074643e-05
0.000162136040855364
5.46380070628187e-05
0.000146049479380802
4.22363535019409e-05
0.000132722352697729
3.57319404221175e-05
0.000122588558599303
2.50198334616763e-05
0.000115404914673119
1.67378010833569e-05
0.000110864581248857
8.35446122509289e-06
0.000108694724698248
1.61337862304728e-06
0.00010933416809784
-8.41340650755726e-06
0.000112002422449647
-1.3827632615957e-05
0.000116893581242891
-2.1461673964935e-05
0.000124055809265103
-2.94343640338923e-05
0.000133179357162453
-3.54957722117526e-05
0.000144688677447806
-4.49389114483312e-05
0.000158175575032761
-5.12479771590034e-05
0.000173685664414297
-5.90072549712416e-05
0.00019126240751622
-6.6748658254839e-05
0.000210859719839178
-7.44182362543953e-05
0.000232510294939609
-8.24282464769796e-05
0.000256092252086379
-8.98396319148425e-05
0.000281510558906427
-9.68829204939991e-05
0.000308869271275884
-0.000104913476202567
0.000338100403040057
-0.000112307372859453
0.000369276749963668
-0.000120620141322253
0.000402776922931888
-0.000131264717638769
0.000437654829103045
-0.000135841904772041
0.000471062592110814
-0.000122988621026296
0.000501666920188028
-0.000107745226062723
0.000529453400707651
-9.48576976859753e-05
0.000554710808937118
-8.43132497107689e-05
0.000577734596658078
-7.55182823078004e-05
0.000598771520403009
-6.78962492626679e-05
0.000618027178620276
-6.11765900436718e-05
0.000635674395936012
-5.51946884719075e-05
0.000651864335343227
-4.984978598238e-05
0.000666730337811495
-4.50647712643203e-05
0.000680393242429064
-4.07822606914766e-05
0.000692960566966721
-3.694434586413e-05
0.000704531504821495
-3.35097791174032e-05
0.000715194430769264
-3.04314313762605e-05
0.000725031021058823
-2.76760511149345e-05
0.000734114598662649
-2.52069823435225e-05
0.00074251203228307
-2.299482509645e-05
0.00075028463339383
-2.10138409277818e-05
0.000757487285721904
-1.92374375338624e-05
0.000764171057707868
-1.76472216874868e-05
0.000770381481126783
-1.6221417689035e-05
0.000776160963407444
-1.49454049062279e-05
0.000781547735022445
-1.38033332991571e-05
0.000786577142568248
-1.27821795897514e-05
0.000791281453889043
-1.18721506703941e-05
0.000795690681884048
-1.10602912071733e-05
0.000799832255127114