/*--------------------------------*- C++ -*----------------------------------*\
| =========                 |                                                 |
| \\      /  F ield         | OpenFOAM: The Open Source CFD Toolbox           |
|  \\    /   O peration     | Version:  v2006                                 |
|   \\  /    A nd           | Website:  www.openfoam.com                      |
|    \\/     M anipulation  |                                                 |
\*---------------------------------------------------------------------------*/
FoamFile
{
    version     2.0;
    format      ascii;
    class       volSymmTensorField;
    location    "7000";
    object      turbulenceProperties:R;
}
// * * * * * * * * * * * * * * * * * * * * * * * * * * * * * * * * * * * * * //

dimensions      [0 2 -2 0 0 0 0];


internalField   nonuniform List<symmTensor> 
14000
(
(0.000172479700150008 -1.16810179043609e-05 -0 0.000172477394655476 -0 0.000172478218072522)
(0.000172305831217261 -1.16625888442393e-05 -0 0.000172300444471738 -0 0.000172303784950203)
(0.000170969005921218 -1.15402722345586e-05 -0 0.000170961055752078 9.14112853666346e-27 0.000170965072553896)
(0.000169510802139583 -1.14032151011072e-05 -0 0.00016950263538684 -9.073421796081e-27 0.000169506738858653)
(0.000168033745926918 -1.12618572839405e-05 -0 0.000168024786394977 -0 0.000168029365605603)
(0.000166338110835106 -1.11000456700368e-05 -0 0.000166328039734665 -0 0.000166333154871612)
(0.000164425135776895 -1.09180023529519e-05 1.47642537996743e-27 0.000164414000140456 9.57481401103501e-30 0.000164419632495091)
(0.00016229726206565 -1.07160857551606e-05 -5.38541270164756e-27 0.000162284982444313 2.88017027490968e-27 0.000162291183195841)
(0.000159923362479725 -1.04918923361647e-05 2.43293913626089e-27 0.000159909806037628 -2.8435126650126e-27 0.000159916637301093)
(0.000157271715359601 -1.02429991914067e-05 1.41387948592122e-27 0.000157256749627166 1.74402940580414e-26 0.000157264274878135)
(0.000154308438780359 -9.96688653019706e-06 -0 0.000154291915493147 -1.71509670876991e-26 0.000154300207339948)
(0.000150993339328788 -9.66064949659713e-06 -0 0.000150975093036746 -0 0.000150984231807973)
(0.000147280336452581 -9.32109387652392e-06 -0 0.000147260188713732 -3.39940834070095e-26 0.000147270260979435)
(0.000143117186779082 -8.94479501291923e-06 -0 0.000143094947484538 6.68204777461048e-26 0.000143106045558674)
(0.000138444163222745 -8.5280970336746e-06 -0 0.000138419632765279 5.2494095865295e-28 0.00013843185401308)
(0.000133193497095748 -8.06721602404431e-06 -0 0.000133166469147535 5.92661978414417e-28 0.000133179914237157)
(0.000127286677197664 -7.55821770048447e-06 -0 0.000127256945321208 -6.36911446217157e-26 0.000127271717032506)
(0.000120635298320719 -6.99737295403288e-06 -0 0.000120602651401644 3.07374986576515e-26 0.000120618853103309)
(0.000113128180130175 -6.3805429431861e-06 -0 0.000113092445354448 -0 0.0001131101755478)
(0.000104659890381204 -5.70597037104439e-06 -2.4483215222196e-27 0.000104620720471211 -4.53648457391048e-29 0.000104640130711391)
(9.49536424121441e-05 -4.96252723588078e-06 -3.09233289929324e-26 9.49108514735063e-05 -4.0188985967825e-27 9.49320937562816e-05)
(8.4013012473683e-05 -4.16238785020983e-06 1.15451552970427e-25 8.39603908095976e-05 -2.97828168821685e-25 8.39869052448034e-05)
(7.44658835660118e-05 -3.48738295178236e-06 -1.35821567992955e-25 7.438400569495e-05 7.05677903833275e-26 7.44250483103943e-05)
(6.78464732418476e-05 -3.02515436812504e-06 4.19837615551889e-25 6.77168218995607e-05 5.52403218184983e-26 6.77821494670097e-05)
(6.37577104747318e-05 -2.73634211901417e-06 2.67978317245315e-25 6.35618540877121e-05 1.2243617138954e-23 6.36607096775884e-05)
(6.18753621295589e-05 -2.588753490989e-06 -1.53874581781788e-24 6.15917708017355e-05 6.4462454017195e-24 6.17349123817115e-05)
(6.18201422614405e-05 -2.55220096055582e-06 1.4952046134865e-24 6.14202938394531e-05 -2.56325921523665e-23 6.16221672373285e-05)
(6.41643880139185e-05 -2.65377545757636e-06 -1.06405227541802e-24 6.3598066473866e-05 4.89785870385514e-25 6.38834783341635e-05)
(6.83075594154044e-05 -2.85844843939434e-06 -1.01852910221483e-24 6.75116994771491e-05 -2.75930397810666e-26 6.79127348550664e-05)
(7.49768012814547e-05 -3.20804410701234e-06 -9.99986585499285e-27 7.38427044492935e-05 6.24541068259426e-26 7.44130263631318e-05)
(8.4456640058564e-05 -3.72447257332071e-06 -1.62746491925445e-26 8.28297109969677e-05 6.63230265032205e-26 8.36469441830863e-05)
(9.62535273422465e-05 -4.38344045099159e-06 -1.83841974257764e-24 9.39369584038517e-05 7.65149399065765e-23 9.50990372932758e-05)
(0.000111399200196544 -5.24714239828601e-06 3.0025792650759e-23 0.000108097857087388 -8.54131928191015e-23 0.000109751399637784)
(0.000130690919710955 -6.3674124138012e-06 4.00033695421117e-24 0.000125988873025171 9.46473299638172e-23 0.000128340771779966)
(0.000154544063828441 -7.77139958699122e-06 3.61595739112828e-23 0.000147897103514194 -2.05121401957624e-22 0.000151217020739383)
(0.000181998770906601 -9.37908346817899e-06 7.85721213593282e-23 0.000172812682764303 -1.04465764477328e-22 0.0001773964029981)
(0.000217484830642466 -1.14638550556755e-05 -2.72486485464016e-23 0.000204718862025722 -2.24926157666041e-22 0.00021107835924191)
(0.000257963271543342 -1.38058451630673e-05 6.47852154693651e-23 0.000240694179104046 -2.368591680029e-22 0.00024929129978691)
(0.000308345217415983 -1.66829807389836e-05 -1.0331956467384e-22 0.000285014766362522 -2.25307922128362e-23 0.000296611762650499)
(0.000367453808674075 -1.99966585668157e-05 -1.58294116991766e-22 0.000336524272392843 -5.11806185825966e-23 0.000351888698666116)
(0.000447225191716304 -2.45186829919662e-05 9.21877350577604e-26 0.000405478851821056 -1.72826039096485e-26 0.000426181732190157)
(0.000540832231542318 -2.99522234451834e-05 -2.83766026892035e-23 0.000485847712177794 7.17615331015161e-23 0.000513097137170593)
(0.00064847354470337 -3.62964601920736e-05 -9.31483005606542e-27 0.000577641884763607 -1.13254956857084e-26 0.000612706042152805)
(0.000773129027123436 -4.4135834488606e-05 9.01203654818569e-23 0.000683795597993363 -2.12707317864483e-22 0.00072798722534762)
(0.000901007508450199 -5.2834406607055e-05 1.42450806134697e-25 0.000793028030270028 3.35652897171488e-26 0.000846418799964293)
(0.00102358691417642 -6.2048853049885e-05 4.81548526574221e-22 0.000898918658333226 2.08476499959665e-22 0.000960547974931896)
(0.00113984979905561 -7.19591770059744e-05 5.03755652852364e-22 0.00100137185949894 -1.07280389859705e-21 0.00106981810179509)
(0.00123441500014052 -8.15418419769188e-05 -1.12150048587977e-21 0.00108824114238869 2.89217290915663e-21 0.00116050072839759)
(0.00129676587922924 -8.96248864066943e-05 -6.79279498207062e-23 0.00115083128830719 4.22121536381836e-25 0.00122298513500215)
(0.00131149242942889 -9.43669549386584e-05 -3.10388569898331e-25 0.00117576712396127 1.57015480774214e-24 0.00124290094883807)
(0.00126338030439824 -9.3276203383384e-05 6.23239749661814e-22 0.00114791038873125 -2.3599468572281e-21 0.00120505955983269)
(0.0011704963844519 -8.71897472444914e-05 -3.41214044916009e-22 0.00107989554332709 -3.31833373055467e-23 0.00112475577494108)
(0.00102998606329251 -7.56244709502863e-05 -1.58237651409727e-23 0.000966177251710656 -1.17398280316582e-21 0.000997796747672831)
(0.000869027245109449 -6.13335380117294e-05 2.80623151861028e-23 0.000828289283733056 4.8481351515526e-23 0.000848485947103274)
(0.000719584884071126 -4.79563080896206e-05 2.8839008767661e-22 0.000695547483804546 -8.9918975438998e-22 0.000707470331326968)
(0.000600832717578084 -3.75552631391846e-05 -6.45139161899666e-24 0.000587392014102804 -6.46948138526342e-26 0.000594055172148128)
(0.000509996161495515 -2.99031433713548e-05 -2.3194742689369e-23 0.000503192642463718 1.36550021896594e-23 0.000506559667496129)
(0.000432995805689327 -2.37490442917338e-05 4.91786818710397e-24 0.000430445369492271 3.09866704982777e-25 0.000431698297549202)
(0.000368823993826377 -1.88985227278314e-05 2.78713413859155e-24 0.000368895668620909 -9.0345075807802e-24 0.00036884395308621)
(0.000315375516907103 -1.50912379441261e-05 1.9725274568286e-24 0.000317003325952111 -6.0755236810847e-24 0.000316176995953413)
(0.000268753693044411 -1.19811614995139e-05 -9.11024194392526e-25 0.000271222750121692 1.0606287130669e-23 0.000269977369473729)
(0.000227426904897352 -9.40949257614988e-06 2.43886417046398e-24 0.000230240474945167 -1.0878378515303e-25 0.000228823534064851)
(0.000191376352803268 -7.32297797279566e-06 3.94252013908328e-24 0.000194211242662164 -1.4702440424328e-25 0.000192783759811641)
(0.000158157089214428 -5.54937716861116e-06 4.66909432733907e-25 0.000160774029629397 -1.38242568626068e-23 0.000159455997657991)
(0.000129600244234 -4.14683786956522e-06 -2.83791185926566e-23 0.000131884720396436 -1.47609765806747e-22 0.000130732911765738)
(0.000103971975747958 -2.99924545469081e-06 -6.37978176780293e-24 0.000105855015240549 1.92552856001177e-23 0.000104904763032226)
(8.07526583779908e-05 -2.06309174412043e-06 9.18882773584923e-24 8.21999440681498e-05 1.39274355817801e-23 8.14681722202854e-05)
(6.03143663688793e-05 -1.33094593946865e-06 2.39621310683083e-24 6.13424273186076e-05 -1.16612337841727e-23 6.08215453715079e-05)
(4.46830527002885e-05 -8.38887442711104e-07 -1.17252829363146e-24 4.53858661513898e-05 8.90237321759931e-24 4.50285356453479e-05)
(3.1512152958295e-05 -4.83102767055679e-07 9.60855535307678e-24 3.19476575137661e-05 3.18638132068059e-23 3.17254623107661e-05)
(2.18136561792686e-05 -2.61831091505689e-07 1.070810023182e-23 2.20650747204271e-05 4.72804258715021e-23 2.1935821967713e-05)
(1.47427336835463e-05 -1.28906732275814e-07 2.72030731509795e-24 1.48737381167104e-05 1.40590354111174e-23 1.48057808528109e-05)
(1.14043408957413e-05 -6.73564718653223e-08 -5.01967855618616e-25 1.14764696993516e-05 2.40280019826319e-26 1.14383095786813e-05)
(1.30195662381357e-05 -4.37094237491264e-08 1.0712628996491e-27 1.30688683075112e-05 5.37191360535576e-27 1.30418709766023e-05)
(1.51547867294363e-05 -1.61563131747916e-08 -9.87366797422089e-24 1.51755852923023e-05 -3.33591446567817e-23 1.51622899258491e-05)
(1.69442492357615e-05 1.43735808069043e-08 1.18756432348712e-24 1.69314695976459e-05 9.21852657513303e-24 1.69347102223138e-05)
(1.84598565692937e-05 4.43704600483462e-08 4.19603049662432e-24 1.84135617886437e-05 1.00316973464418e-23 1.84332080649454e-05)
(1.95191839611301e-05 7.23859166240263e-08 1.62194028563983e-24 1.94403119027853e-05 -3.56502282200656e-26 1.94761765746044e-05)
(2.0813157595662e-05 1.02587713791174e-07 1.5003332370479e-24 2.07005758272407e-05 -8.30396484360441e-26 2.07530759904566e-05)
(2.11562342023969e-05 1.20022351120874e-07 -3.27908164509489e-24 2.10254762659458e-05 -9.35732240263435e-24 2.10870701581658e-05)
(2.15099408338705e-05 1.37363754334669e-07 -1.90818258120212e-25 2.13608241982324e-05 2.73884491364111e-26 2.14317136805454e-05)
(2.17656694880423e-05 1.50855045333538e-07 -3.14068452205946e-24 2.16052622134952e-05 -8.25087474869014e-24 2.16817603475969e-05)
(2.16575374741009e-05 1.57518222683541e-07 -1.62784310980598e-24 2.14940491829319e-05 5.43636537913678e-26 2.15723106516508e-05)
(2.13896029652165e-05 1.59321742958057e-07 -6.23669064684847e-28 2.12295143701467e-05 2.81687311383346e-29 2.13061636848926e-05)
(2.10731358239676e-05 1.5872459158231e-07 2.21746691399547e-24 2.09192425189148e-05 1.46054949118686e-23 2.09930569072656e-05)
(2.05931615058602e-05 1.51715243749025e-07 -1.82952035050191e-24 2.04535301370789e-05 -7.45326159351459e-24 2.05203466690481e-05)
(1.97728263168713e-05 1.38506763922327e-07 1.81990379532698e-24 1.96515690042454e-05 2.5002615124684e-24 1.97095315372117e-05)
(1.91390716559592e-05 1.25737581072554e-07 3.64255390462355e-24 1.90358218228534e-05 1.0309863244315e-23 1.90850040136091e-05)
(1.8125881506538e-05 1.04801937057572e-07 -6.89633334254064e-25 1.80464362133301e-05 -1.80876612637682e-24 1.80839882791325e-05)
(1.71603170186249e-05 8.40470335793234e-08 -1.00310655133312e-25 1.71020840229001e-05 1.16301413170852e-26 1.71293765604806e-05)
(1.6087824500663e-05 5.90939768248143e-08 1.966624655474e-24 1.60524912709219e-05 1.12941864017584e-23 1.60685613941853e-05)
(1.48266714739077e-05 3.22392202279382e-08 -9.09303156446617e-26 1.48119014595707e-05 4.18288321596047e-27 1.48180509332459e-05)
(1.36510087332469e-05 6.14706485183578e-09 4.59216768816755e-25 1.36536158658579e-05 3.10204201983449e-24 1.36513143070604e-05)
(1.23888497118989e-05 -2.01519940881423e-08 -6.05634204662344e-25 1.24057470535718e-05 -2.6346144213008e-24 1.23965703850065e-05)
(1.11705116874154e-05 -4.4666117671079e-08 -5.95203103846094e-26 1.11976275033188e-05 9.38197831712621e-26 1.11835644519292e-05)
(1.10627826759557e-05 -7.4264464536734e-08 5.48334862023472e-26 1.10998143335414e-05 -2.29446520959186e-27 1.10809522160839e-05)
(1.42182738057442e-05 -1.38988113262589e-07 -1.40510212145084e-28 1.42760036079382e-05 -5.01235014785109e-28 1.42468844648703e-05)
(1.82765836115707e-05 -2.39647853257008e-07 2.64344185404211e-28 1.83586931968901e-05 6.42511957915838e-28 1.8317562961462e-05)
(2.36462535438769e-05 -3.97259186644351e-07 3.61796644064225e-29 2.37553359990776e-05 -1.32066368055918e-30 2.37009302982287e-05)
(3.06194976676367e-05 -6.3757605879238e-07 -1.61716928388212e-26 3.07534618145875e-05 -3.39453476442247e-25 3.06869769821844e-05)
(3.95810595776758e-05 -9.95393858315017e-07 2.40810336340111e-26 3.9729252304809e-05 -3.27611170894181e-25 3.96560714642098e-05)
(5.15789155502341e-05 -1.54271192856773e-06 5.21810447279773e-24 5.17186039667661e-05 3.37551353639891e-22 5.16501274922711e-05)
(6.75520905461381e-05 -2.37924926602111e-06 1.97604997980439e-24 6.76559699621443e-05 4.80530144963174e-22 6.76051814652816e-05)
(8.27940018693069e-05 -3.31178226953271e-06 -1.46555473516113e-26 8.28622732032808e-05 -6.46247792141555e-26 8.28302499999923e-05)
(9.45092737308334e-05 -4.13255016479287e-06 1.21168789017487e-26 9.45597628960945e-05 -1.68730863112013e-26 9.4536216140214e-05)
(0.000104278419078757 -4.87666411340309e-06 3.61818570576949e-27 0.000104321713660093 -1.19198356478168e-27 0.00010430161464643)
(0.000112887192876266 -5.57085674795715e-06 -8.0055487904777e-27 0.000112926378013824 2.03913474759637e-27 0.000112908272133774)
(0.000120513326015672 -6.21567804639451e-06 -7.54608214299571e-28 0.000120549039855347 8.9174662707622e-27 0.000120532529220782)
(0.000127286386862383 -6.81176062508066e-06 1.50641039020274e-30 0.000127318808136891 -4.46587728099888e-32 0.000127303832346456)
(0.000133276690561488 -7.35779075150205e-06 8.70839127989049e-41 0.000133305911807685 -8.33129168686782e-27 0.000133292433027977)
(0.000138548293465048 -7.85353163982959e-06 -0 0.000138574449874331 8.62472326332706e-27 0.000138562407906501)
(0.000143169175536082 -8.30034039055967e-06 -0 0.000143192454178325 -0 0.000143181764293255)
(0.000147207126270363 -8.70067418276369e-06 -0 0.000147227750473065 -0 0.000147218308230982)
(0.000150728157987543 -9.05774925929226e-06 -0 0.000150746370043261 -0 0.000150738061188005)
(0.000153794609459447 -9.37519610319287e-06 -0 0.00015381065587924 -0 0.000153803363581723)
(0.000156463833166234 -9.65678035686193e-06 -0 0.000156477953578199 -0 0.000156471564013739)
(0.000158787728307383 -9.9062279912181e-06 -0 0.000158800148812572 -0 0.000158794554513652)
(0.000160812624019529 -1.01270956039434e-05 -0 0.000160823553697944 -0 0.000160818655126552)
(0.000162579564163733 -1.03227133733015e-05 -0 0.000162589193018753 2.61744670171922e-27 0.00016258489989219)
(0.00016412462925936 -1.04961390406955e-05 1.90344352553673e-28 0.000164133128693307 -2.64439562488631e-27 0.000164129359367645)
(0.000165479426620634 -1.06501534637471e-05 -8.18019125544793e-27 0.000165486949386809 4.36545993134427e-28 0.000165483631343739)
(0.000166671619793205 -1.07872693386726e-05 7.85289964919631e-27 0.000166678301743013 1.68428619266465e-27 0.000166675370308618)
(0.000167725175122156 -1.09097211453221e-05 1.94408144453297e-28 0.000167731136431275 -4.09811050477858e-27 0.000167728534671541)
(0.00016866132484416 -1.10195366268343e-05 -0 0.000168666671733768 1.9763935360586e-27 0.000168664348937976)
(0.00016949799366434 -1.11184644228858e-05 -1.30918719358233e-28 0.000169502820079877 -1.68688501054114e-27 0.000169500732244515)
(0.000170252100954005 -1.12081755686073e-05 8.50607045966347e-27 0.000170256490280589 -1.61386676883555e-28 0.000170254596625384)
(0.000170936182762573 -1.1289950529814e-05 -8.27615166078897e-27 0.000170940209249505 4.20405480876953e-28 0.000170938477076938)
(0.000171566209816967 -1.1365376590359e-05 -1.32468880792213e-28 0.000171569940937231 1.21872317855819e-28 0.000171568332986122)
(0.000172146781937617 -1.1435017199819e-05 4.65288553296952e-29 0.000172150278837031 2.54488028014078e-27 0.000172148776716918)
(0.000172702402334183 -1.15012207343917e-05 -4.29375440955756e-27 0.000172705724056952 -5.60602656366074e-28 0.000172704277606625)
(0.000173214440694569 -1.15624442855866e-05 -9.83513160964315e-29 0.000173217643084277 -5.65481629288838e-28 0.000173216270621966)
(0.000173752075217124 -1.16250715844404e-05 4.29508049674979e-27 0.000173755219099589 -9.42024025586519e-29 0.000173753798195135)
(0.00017420403308148 -1.16791573677565e-05 4.45986297743706e-27 0.00017420718399652 -4.80533406772952e-28 0.000174205874424996)
(0.000174835319280131 -1.17488705304361e-05 -8.75528387503234e-27 0.000174838557541681 9.00579595264901e-28 0.000174836922575476)
(0.000175138521819474 -1.17882427102393e-05 6.53224763243915e-27 0.000175141968360905 -6.00914585781894e-28 0.000175140769052521)
(0.000176223173440291 -1.1898425427094e-05 -2.16891870308884e-27 0.00017622698230104 1.82239580483868e-28 0.000176224438062167)
(0.000175871083673933 -1.18774382936741e-05 -1.28983685283816e-29 0.000175875437574717 4.78037981162554e-32 0.000175874955956137)
(0.00017877168500298 -1.21536273872541e-05 -0 0.00017877816048998 -0 0.000178771844859964)
(0.000175815115132643 -1.18960289256336e-05 -0 0.000175814461987501 -0 0.000175820118833852)
(0.00018228401581068 -1.25085586816073e-05 -0 0.000182318715541762 -0 0.00018229350927828)
(0.000406415122430442 -0.00011976148330496 -0 0.000406373552644395 1.75312147397128e-26 0.000406387845607663)
(0.000405446109740404 -0.000119334799555932 8.15776854942875e-27 0.000405351818403783 -1.74862793131885e-26 0.00040540335786797)
(0.000404448241093762 -0.000118952717046654 -8.07092170087736e-26 0.000404296237213319 4.98682114852674e-27 0.000404371645000923)
(0.000403576450951983 -0.000118575979865022 6.42947188533198e-26 0.000403391157129563 -5.02711041255679e-27 0.0004034825429454)
(0.000402600921155948 -0.00011811603938137 8.10816226680057e-27 0.000402386067249554 3.00471364909115e-29 0.000402493076549168)
(0.000401428146809041 -0.000117561779731644 -0 0.000401180831641249 1.39007699414642e-25 0.00040130411748918)
(0.000400038206190894 -0.000116908321025898 -1.63988907016569e-26 0.000399756683292174 -1.38846840984121e-25 0.000399897072077788)
(0.000398397345417081 -0.000116142042554075 1.56493076419619e-25 0.000398078876716158 -2.54097871693776e-25 0.000398237862992505)
(0.000396466564706424 -0.000115249021374815 -1.06682153104704e-25 0.000396107122893957 2.53660816154174e-25 0.000396286732803573)
(0.000394206897334314 -0.00011421451251886 -1.69674085570841e-25 0.000393801577563966 9.81363165021469e-27 0.000394004289431603)
(0.00039157544130889 -0.000113021506292121 1.19742717231552e-25 0.000391118395690675 -1.02215889898553e-26 0.000391347182549089)
(0.000388523652302936 -0.000111650526632569 -1.75424026452347e-26 0.000388007950264199 2.83354472081879e-25 0.000388266330278341)
(0.000384996057204114 -0.000110079159139883 3.28497470275009e-25 0.000384413552951424 -3.01738541667787e-25 0.000384705659074277)
(0.000380928250481622 -0.000108281346795764 -4.79242214950727e-25 0.000380269375983215 3.29005214716927e-25 0.000380600059705583)
(0.000376244253372442 -0.000106226492793147 -6.22512192173705e-26 0.000375497735688542 -2.85879273319181e-25 0.000375872711169755)
(0.000370853294350654 -0.000103878397273044 -6.67503939596819e-26 0.000370005738663142 -7.00264808823365e-28 0.000370431780831082)
(0.000364645137146244 -0.000101193612018213 5.04671874127785e-25 0.000363680510121086 -4.1566336485753e-26 0.0003641657316156)
(0.000357480728156848 -9.81183857904388e-05 -1.60566929596597e-25 0.000356379233523317 3.21034036173507e-25 0.000356933577950289)
(0.000349186880069099 -9.45869144772901e-05 -3.38005847736729e-26 0.000347924476290566 -2.95015674775186e-25 0.000348560154495303)
(0.000339518883116525 -9.05066311262924e-05 3.80722017748812e-26 0.00033805960038268 7.05438213459465e-28 0.000338794059204983)
(0.000327944774753094 -8.57016894031365e-05 5.35285319071048e-27 0.000326248871723558 5.56003872708857e-25 0.000327102502994432)
(0.000315656785564493 -8.05826857305492e-05 -1.6713881582977e-24 0.000313620280086031 7.95672171958112e-24 0.000314648139354476)
(0.000306667538940128 -7.6414402601897e-05 3.25035846891545e-24 0.000303917092340594 -1.7952174735914e-23 0.000305289011406524)
(0.000300648692451387 -7.30469081235981e-05 1.17446597282467e-23 0.000296737813092182 3.12967347499544e-25 0.000298681634541479)
(0.000296491176590395 -7.02830252930563e-05 -4.45716477154866e-23 0.000290924400607687 -3.19910268038295e-22 0.000293685717660745)
(0.000293576920771648 -6.80338288534387e-05 -3.26584375369104e-23 0.00028585427636449 -6.16200466209443e-23 0.000289679419609609)
(0.000291443914403731 -6.61859490473524e-05 5.96621507781163e-23 0.000281091867738806 3.01643335967691e-22 0.000286221020682327)
(0.000291844021606477 -6.50760183571534e-05 7.58440785706338e-23 0.000278264614591188 -1.29017264043685e-22 0.000284989907115057)
(0.000293375085098691 -6.43898232851554e-05 2.33925084448311e-23 0.00027604024756656 -1.42808887898025e-25 0.000284640695362109)
(0.0002981997620924 -6.46212786020334e-05 2.03935331449724e-25 0.000276242094747979 -1.25436051415067e-24 0.00028713778033389)
(0.000303834744303022 -6.5117142603438e-05 9.1517232819847e-23 0.000276539696441367 1.84559719086334e-24 0.000290105859825995)
(0.000310112425265938 -6.57958190758583e-05 -2.2269986016673e-22 0.000276723126681926 3.16808118696856e-23 0.000293342404250122)
(0.000318093379579936 -6.67973741974709e-05 5.03141941896508e-24 0.000277667298934081 1.27198795384446e-21 0.000297817167808035)
(0.000327370461423045 -6.79518031122278e-05 -3.33157164271481e-22 0.000278976894428785 7.28622594896612e-24 0.000303141129317699)
(0.000337153072757265 -6.9042080675774e-05 2.92739123664354e-23 0.000279989127956907 1.87001942052724e-21 0.000308581581914012)
(0.000347145926955319 -6.99436491766606e-05 -1.9736767798051e-22 0.000280595637923439 1.07604777111087e-21 0.000313948698457948)
(0.000360752398883198 -7.12708090325363e-05 2.19486778966615e-21 0.000283350657943771 -1.59077276252249e-21 0.000322194850044658)
(0.000372798393723323 -7.20051548072936e-05 -3.12964028139336e-22 0.000284588170632388 1.609641771683e-21 0.000328963824119936)
(0.000389828216311432 -7.33782601621408e-05 8.50415745919405e-22 0.000288932538468916 -3.15508893644516e-22 0.000339750699279702)
(0.000407467704142497 -7.46005484738646e-05 -2.09811051830463e-22 0.000293576269750493 -8.58247487137094e-22 0.000351079346009127)
(0.000435066218065543 -7.73601723567178e-05 1.8986226968004e-23 0.000304531915124255 6.00046166436669e-25 0.000370533548266956)
(0.000461486959423271 -8.01173724337569e-05 -1.32152045697964e-21 0.000314891295695032 -9.48349327387331e-22 0.000389220298439767)
(0.000494674809276617 -8.44184755518907e-05 -5.81948066129501e-23 0.000329670763559314 -5.13563004295866e-25 0.000413437522609671)
(0.000530964912986654 -9.00902367241856e-05 -1.93600237323752e-21 0.000347250943091476 -2.86874364782075e-22 0.000440686383490962)
(0.000568303009394333 -9.73782362408764e-05 4.01359996703692e-23 0.000366769619480266 1.07834714601489e-25 0.000469376038071215)
(0.000606010546990082 -0.000106498439277875 1.28911485849838e-21 0.000388510214293477 -1.06049827038446e-21 0.000499296902317713)
(0.000644390831928399 -0.000117768672975949 -2.00392833033785e-21 0.000413381346864939 -1.04301771428022e-21 0.000531061804151423)
(0.000678216148158221 -0.000130555929882839 4.76071847919111e-21 0.000439213991639049 -4.85724749507279e-21 0.000560953031809618)
(0.000706159057913577 -0.000144308900445616 -1.73519095498134e-22 0.000465961535718098 4.53225971846474e-24 0.000588222938151535)
(0.000722759002567964 -0.000157406706881585 -2.61855883127052e-22 0.000491120111219206 7.12883580691726e-24 0.000608923997386694)
(0.000723986894360913 -0.000167859891940265 -3.69130112085182e-21 0.000511288163866589 3.42377654607026e-21 0.000619308037400298)
(0.00071298621559718 -0.000174765015567204 1.96818692032355e-22 0.000526914095710082 3.33130965751522e-21 0.000621251199859155)
(0.000687377024410524 -0.00017607803637385 -1.1888477484123e-21 0.000534834479629342 3.07347633938864e-21 0.000612062101676398)
(0.000659356297192396 -0.000173995487584831 1.32820886241853e-21 0.00054040061944406 -1.73291312770975e-21 0.000600489278838022)
(0.000637844065462177 -0.000170622654203912 -6.92691545192078e-22 0.000549459755872442 -2.38910865784402e-22 0.000594043772778157)
(0.000630826780583183 -0.000168903278241349 3.07991248377166e-22 0.000567968494393184 -1.47125108054562e-21 0.000599632566668559)
(0.000631734179133215 -0.000167661225961107 7.76043245516467e-23 0.000591448966220041 9.69235250069517e-22 0.000611754990972796)
(0.000635220355282143 -0.000166024775315488 -3.38630254863078e-23 0.000615404582576551 -3.95865314145116e-22 0.00062542678810421)
(0.000639549060839102 -0.000163804310770297 -4.36037796031618e-23 0.000638240751641338 -1.52371881445393e-23 0.000638981036406612)
(0.000641549589296389 -0.000160336971090765 -2.53979636922215e-23 0.00065688643786398 -5.18928098007993e-22 0.000649300503063716)
(0.000639070419645545 -0.00015525374848306 2.58975802973011e-22 0.000669007024341889 2.04627329160096e-22 0.000654130844587493)
(0.000631812227122961 -0.000148624098466806 -4.38655454848167e-23 0.000674049028685061 7.66775913430018e-25 0.00065304384815519)
(0.000619460150902924 -0.000140544939623353 6.89253650720142e-23 0.000671478011798753 1.59465310436476e-21 0.000645607539005599)
(0.000601636448129911 -0.000130965763163201 -2.23173527729204e-22 0.000660803116296117 -4.12619242089455e-22 0.000631399901997345)
(0.000581151253109179 -0.000120886388685172 7.34828510903658e-22 0.000644951475728606 3.56628777527974e-21 0.000613257565238918)
(0.000554816120347658 -0.000109470504545834 1.40138138359145e-21 0.000620538192903391 6.28295186432239e-21 0.000587929312271385)
(0.000525140288382916 -9.75234765215806e-05 3.54166896602778e-22 0.000590330711445692 6.87124178893018e-22 0.000558015743442942)
(0.000493230615944128 -8.52571549757187e-05 -7.74866200480231e-22 0.000555713264907172 -3.04902553262036e-21 0.000524794818708822)
(0.000461594018655725 -7.36968931919417e-05 8.70485783025865e-22 0.000519868045428385 2.79778666372376e-21 0.00049106014661259)
(0.000425555860634961 -6.17427342337744e-05 -5.27690309744383e-22 0.000477741182745263 -2.4138125005406e-21 0.000452012325405472)
(0.000392275083211175 -5.11930812680572e-05 -6.16902310873181e-22 0.000437949722794089 -3.87435571138401e-21 0.00041546299986762)
(0.000357894477633323 -4.1210242750904e-05 -5.77458117986815e-22 0.000396412207809414 -1.91997796224609e-21 0.000377520054397591)
(0.00032949341423231 -3.33032566514973e-05 1.09025658467478e-25 0.000361741317017004 4.04746656959669e-26 0.000345954326691232)
(0.000300082694558388 -2.61812244436716e-05 -1.91701609544395e-22 0.000326148314773686 6.26229325351584e-24 0.00031344894402349)
(0.000276396514684487 -2.07045635859328e-05 5.84358227873372e-22 0.000297409441635865 2.16891421142974e-21 0.000287204806290824)
(0.000254631147587244 -1.62196491852201e-05 4.46131531414773e-22 0.000271305391450628 4.00135303171539e-22 0.000263257671372246)
(0.000237705240257028 -1.29344380544346e-05 -5.10400703731452e-22 0.000251083527617465 -1.55916068426722e-21 0.000244655232321241)
(0.000220981970776245 -1.02033843332891e-05 3.01981878368637e-22 0.000231507996356555 1.71304475346702e-21 0.00022648944598056)
(0.000209997418539319 -8.22909086723979e-06 -1.2623167866716e-22 0.000218445856900262 5.19959440460159e-24 0.000214450451898353)
(0.000201981886887804 -6.9127865452065e-06 -1.597571061797e-23 0.00020903318428345 -2.2057123061322e-22 0.000205718167356952)
(0.000194277383740116 -5.80960845723601e-06 3.68338160464007e-22 0.000200094216853308 1.34192490520957e-21 0.000197389635787992)
(0.00019107455603791 -5.14257035105897e-06 -1.14918381102354e-24 0.000196166120880239 -1.95907141905235e-22 0.000193810104184663)
(0.000189161471105982 -4.72394541934151e-06 1.16172401089038e-22 0.000193771469671062 -5.17309048469473e-24 0.000191653784860493)
(0.000189608570035312 -4.59263315968385e-06 4.85426139769823e-23 0.000194028352834872 -1.67249370517365e-24 0.000191994720277537)
(0.000191358777850626 -4.61027068885997e-06 -7.96239148258701e-23 0.000195726608902936 -4.80081559332004e-22 0.000193720935003948)
(0.000197963221526762 -5.0253830046956e-06 2.31551686496239e-22 0.000202670937949441 1.16717287021839e-21 0.000200487211846376)
(0.000203067363443162 -5.57850399558581e-06 1.03245641741457e-23 0.000208149007008785 1.22863219640391e-22 0.000205778305025759)
(0.000211372293947958 -6.39691377474379e-06 -1.10982568360406e-22 0.000217038442122197 4.03943272826742e-23 0.000214372965928578)
(0.000221558600847883 -7.61056119275508e-06 -1.31522786305412e-22 0.000228051582793188 -5.2643605143067e-22 0.000224965020696555)
(0.000231669038968989 -9.03421089605509e-06 8.48649573500178e-23 0.000239009205051821 -4.55237630746578e-24 0.000235500353886132)
(0.000246284932774584 -1.10615826727532e-05 -1.06680596976023e-22 0.000254797794007604 -7.29310259525654e-22 0.000250688899060088)