/*--------------------------------*- C++ -*----------------------------------*\
| =========                 |                                                 |
| \\      /  F ield         | OpenFOAM: The Open Source CFD Toolbox           |
|  \\    /   O peration     | Version:  3.0.1                                 |
|   \\  /    A nd           | Web:      www.OpenFOAM.org                      |
|    \\/     M anipulation  |                                                 |
\*---------------------------------------------------------------------------*/
FoamFile
{
    version     2.0;
    format      ascii;
    class       volVectorField;
    location    "7000";
    object      U;
}
// * * * * * * * * * * * * * * * * * * * * * * * * * * * * * * * * * * * * * //

dimensions      [0 1 -1 0 0 0 0];

internalField   nonuniform List<vector> 
14000
(
(0.0887072551807102 2.43358062971061e-06 0)
(0.0886806051293362 9.11680275011329e-06 0)
(0.0882866967663485 7.28342655809905e-06 0)
(0.0878658771997902 5.24214144474112e-06 0)
(0.0874378236110838 5.82747098002387e-06 0)
(0.0869427293426907 6.24735609415165e-06 0)
(0.0863827159188962 6.33826547442243e-06 0)
(0.0857574732105302 6.49842795885918e-06 -6.35963112626733e-22)
(0.0850563347743979 6.67601750731392e-06 6.36713469705341e-22)
(0.0842682955558943 6.82355223222549e-06 0)
(0.0833809960217474 6.94876565355215e-06 0)
(0.0823792790850247 7.04687898098651e-06 0)
(0.0812450549079475 7.10868954801444e-06 0)
(0.0799567745078904 7.12760534050029e-06 0)
(0.0784883988463373 7.10065123693788e-06 0)
(0.0768083472748232 7.02657022350418e-06 0)
(0.074877286694945 6.92260004086562e-06 0)
(0.07264653272375 6.8093048073555e-06 0)
(0.0700501249298602 6.81504647459466e-06 0)
(0.0670109888418833 7.13849661205561e-06 0)
(0.0633648268296735 9.16007570273532e-06 1.65668252471438e-21)
(0.0589743509974536 5.21743593574208e-05 2.55178915428704e-20)
(0.0548290808499861 0.000204647271849075 -5.71041217447218e-20)
(0.0517676018745583 0.00047973122417984 0)
(0.0497949013500615 0.000868625730110966 -4.96636888507948e-19)
(0.0488863981823524 0.00137198879310286 -5.24210831921019e-19)
(0.0489261941920996 0.00200919447668357 1.07314637666542e-18)
(0.0501588172898528 0.00282073742253343 -1.0935948903024e-18)
(0.0521917874704775 0.00382288007849241 8.82865779398111e-23)
(0.0552377114245088 0.00509357675210276 -4.33947487173031e-21)
(0.0592738393408312 0.00667035493951754 0)
(0.0638931119354327 0.00857323258771083 3.67060836132208e-21)
(0.0693119864201256 0.0108921285152873 4.29053347096946e-18)
(0.0755678329686918 0.0136867655885225 -1.37843786630163e-21)
(0.082541265799074 0.0169708991418751 3.91721059217068e-18)
(0.089737658598734 0.0207046479359272 3.64143962873325e-18)
(0.098124315550019 0.0251477011777267 -6.62592287159094e-18)
(0.106672421914116 0.029999550935012 5.83154464490298e-18)
(0.116254233160024 0.0356187597371022 -4.91201122789307e-18)
(0.126364883617894 0.0417269910725194 1.40302430908212e-20)
(0.138738581737785 0.0489907006242897 4.62463028449666e-22)
(0.151857999180247 0.0563393259285475 -4.43729864922717e-22)
(0.165579136924491 0.063857666488796 8.9922738521306e-23)
(0.180363363968495 0.0709866838525678 -8.62217644520488e-23)
(0.194614752635975 0.0768158652093963 0)
(0.207837568226168 0.0808712712181732 -2.91011105402952e-20)
(0.220311097228256 0.0830018794366286 -1.27662920704899e-21)
(0.230845997890498 0.0825270814256589 -1.15260119623605e-17)
(0.238708320426712 0.0793700298165425 3.77737952972509e-21)
(0.242567071721755 0.0731873465963677 -8.05300834670203e-21)
(0.240674949339477 0.0642833351171208 4.28559207955843e-21)
(0.234129854195143 0.0538594041259768 1.04526020091209e-17)
(0.221688480898756 0.0423796195804199 1.13246517547237e-17)
(0.205032662799543 0.0314662987598969 1.19522963365299e-17)
(0.187325892989667 0.0220133879750154 -5.29906251513217e-21)
(0.171317638200224 0.0144912532590985 0)
(0.157552897746099 0.00843695408399368 3.18196201554312e-18)
(0.144479753423201 0.003511154439466 -6.2173390857351e-21)
(0.132365070926313 -0.000428892514331007 -1.97469011934428e-19)
(0.121217647590739 -0.003561874552369 -1.56208887429554e-18)
(0.110530757468059 -0.00600773400791569 3.07825172302224e-18)
(0.100135539925983 -0.00783377354464742 -2.99219159679381e-21)
(0.0901891785322323 -0.00912247219075492 0)
(0.080100316209121 -0.00989070910280249 -5.72885502234854e-18)
(0.0704674347562527 -0.0102136812000249 1.11020334654231e-17)
(0.0608512071807385 -0.010131050464955 1.07363909979244e-17)
(0.0509475614249311 -0.00961447055202027 1.03373775131572e-17)
(0.0407856970777445 -0.00866772812528998 -9.92785065184311e-18)
(0.0315767617295086 -0.00752541132960463 9.48924766181198e-18)
(0.0222389849632226 -0.00605954756565778 -9.0569426454508e-18)
(0.0135366674061461 -0.00446076425745828 -8.59490173975186e-18)
(0.00542839995518482 -0.00273771845170773 -8.1685211567823e-18)
(-0.00127152216654471 -0.00118583506899037 0)
(-0.00688133201296296 0.000264500506026136 -3.37517192953746e-21)
(-0.0117491043034811 0.00156245584009841 3.45041487292086e-21)
(-0.0154326349759823 0.0026288803998203 1.26459946719925e-17)
(-0.0181894490516133 0.0034352015538585 1.18198883168589e-17)
(-0.0202438030360225 0.00408328165509329 0)
(-0.0221571810056941 0.0046319846043384 0)
(-0.0228985545798369 0.00484524392762744 -9.67301509476174e-18)
(-0.0236286669498398 0.00504875845357332 -4.05275941943806e-22)
(-0.0240440398570313 0.00510002550493788 -8.42378853322574e-18)
(-0.0240495261816467 0.00503411944872286 0)
(-0.0237875669219272 0.00486216076565331 0)
(-0.0234137758470177 0.00465778514133833 3.09793847397063e-21)
(-0.0226574719723853 0.00431754112230177 6.12030684305199e-18)
(-0.0215770780599505 0.0039352136354498 2.79186847227883e-18)
(-0.0205086855553359 0.00354019090364519 -2.97153966311039e-21)
(-0.018870562662905 0.0030419927988791 -2.25041069373777e-18)
(-0.0171923870803932 0.00257442213442111 0)
(-0.0150471907824275 0.00203683250806174 -1.72719397710668e-18)
(-0.0125265581578939 0.00150980747937247 0)
(-0.00977661031600822 0.00100011880831743 -1.22050533650724e-18)
(-0.00653000424200062 0.000502099688716622 -1.08325002733146e-21)
(-0.00291577744321913 4.96580709303666e-05 3.70322122487957e-19)
(0.00117040322170106 -0.000347650782932401 0)
(0.00575641477173523 -0.000670798051209095 1.84605199823531e-22)
(0.0107232957911803 -0.000891346695385053 -1.83743860720941e-22)
(0.0162468121667453 -0.00100402594117083 0)
(0.022335544681202 -0.000989249415289587 -2.93041638479553e-22)
(0.0289598455266622 -0.000831883159527834 6.85278419580174e-22)
(0.0364513199026737 -0.000524629745069817 -5.60915392885126e-20)
(0.0450726936573421 -0.000187015367275544 -1.59159090263815e-20)
(0.0525117196279365 -1.30440881497e-05 4.37058610499079e-21)
(0.0578386643534612 1.75179509269556e-05 4.74890005657513e-22)
(0.0620738059860041 1.61084094169425e-05 1.04681909639159e-22)
(0.0656392835502787 1.17964790355058e-05 -4.6407803801107e-22)
(0.068672182302451 8.12207151002774e-06 8.37943174119422e-25)
(0.0712786142336592 5.5747788945065e-06 4.62650849854307e-35)
(0.0735242115628397 3.77417232075198e-06 0)
(0.075460372507818 2.50426599868928e-06 0)
(0.0771309929918838 1.62713818395533e-06 0)
(0.0785735492566223 1.0328047311661e-06 0)
(0.0798204946058424 6.45107399404892e-07 0)
(0.0808999009801946 4.05103183828908e-07 0)
(0.0818359535246858 2.69866101576251e-07 0)
(0.0826494383326 2.06557504707431e-07 0)
(0.0833581759984905 1.89524421157486e-07 0)
(0.0839774416990188 2.01857289026853e-07 0)
(0.0845203072777937 2.27852180662779e-07 0)
(0.0849979775976096 2.59833186364642e-07 -8.21351788979499e-23)
(0.0854200733502272 2.89084699217761e-07 8.20896273503152e-23)
(0.0857948124356836 3.12703445062333e-07 0)
(0.0861293658233167 3.24985732581309e-07 0)
(0.0864297394912547 3.2902375995789e-07 0)
(0.0867015116121136 3.13302664927489e-07 5.47034002963149e-23)
(0.0869488305094419 2.98910679297289e-07 -5.46845386242135e-23)
(0.0871768131984087 2.40502698100348e-07 0)
(0.087387063520709 2.28733900086831e-07 0)
(0.0875871571754846 7.61427428020028e-08 -1.91427471188584e-23)
(0.0877715831487682 1.59626992619465e-07 1.81400067433726e-24)
(0.0879612721465292 -3.00107263598577e-07 1.73188775831509e-23)
(0.0881227445850386 2.73704064083515e-07 1.38219436416389e-23)
(0.0883355848101034 -1.38645496686685e-06 -2.58499990744924e-23)
(0.0884474902172448 1.37216467647134e-06 1.72265365051912e-23)
(0.0887899682325227 -5.24889774949787e-06 -5.19431203195621e-24)
(0.0887016195112122 6.91995514481501e-06 0)
(0.0895696752288186 -2.02727522299706e-05 0)
(0.0887332853429585 3.46261900485921e-05 0)
(0.0905775193784066 -7.89270266595201e-05 0)
(0.263268717435809 1.00051363462482e-05 0)
(0.263096327023769 4.14350287379833e-05 0)
(0.262531732559401 5.41612853283454e-05 -2.81257951100644e-22)
(0.26177218013314 5.81766935074507e-05 2.81574903983209e-22)
(0.260904879020999 6.55686778985005e-05 0)
(0.259899601949178 7.43333504535003e-05 0)
(0.258745377748499 8.34523297950622e-05 0)
(0.257434415394024 9.36765846979706e-05 5.72878111506157e-22)
(0.255949199856555 0.000105351182626503 -5.74185711546776e-22)
(0.254267416764062 0.000118696103109151 -5.82932950187137e-22)
(0.2523623865692 0.000134047183653491 5.84662804631633e-22)
(0.250201613359187 0.000151798747671707 0)
(0.247745816431698 0.000172416115366503 1.21411365265651e-21)
(0.244947629011919 0.00019647852449893 -2.45592650199207e-21)
(0.241749422355903 0.000224726482937939 -1.99448154373658e-23)
(0.238080719709516 0.000258120581521223 -2.34053265364192e-23)
(0.233853442801748 0.000297958137811568 2.6319836075964e-21)
(0.228957191167064 0.000346077971835183 -1.34022492924716e-21)
(0.223244352111847 0.000405041660800957 0)
(0.216532059332144 0.000480265949951153 0)
(0.208483865705276 0.000578685694824972 -1.55062184670237e-21)
(0.198793948162754 0.00077507204882076 -8.00087754167225e-21)
(0.188930898094633 0.00123485869007811 5.48389289011692e-20)
(0.180512138257736 0.00203122513124327 -3.5576419544935e-21)
(0.174145002537907 0.00317635204431322 -4.91258360225248e-19)
(0.170021883264339 0.00467489872037377 -4.09626826672848e-21)
(0.1680208691776 0.00655550725271482 1.07652611114847e-18)
(0.168590341501635 0.00890619166564336 1.09867858774297e-18)
(0.171153824578621 0.0117668705873775 0)
(0.17599557485365 0.0153016576993076 0)
(0.182973405925166 0.0196002311143895 -4.33370296682922e-21)
(0.191521437368627 0.0247207155302469 -4.35135362822637e-18)
(0.201795951571288 0.0308356198330347 -3.36715517122144e-21)
(0.213839837370986 0.0380843346414438 -4.0597997925552e-18)
(0.227521221803084 0.0465236020024481 3.83554263476403e-18)
(0.242067442743711 0.05608518325118 -1.04674607130899e-20)
(0.258746677247078 0.0672503854034604 1.29855546883531e-17)
(0.276267946378626 0.0795230396043268 0)
(0.295826499856091 0.0935379070643824 4.84735299533954e-18)
(0.316719583347803 0.108799370467454 3.12535787780755e-20)
(0.341585187501239 0.126517781461844 0)
(0.368854920032507 0.144819165009636 -1.07339976621703e-18)
(0.398456005236141 0.163656015813861 0)
(0.430789608264199 0.181787486567847 2.46598456350028e-18)
(0.464144904078937 0.197337273060836 -3.58122462378495e-22)
(0.49726936728433 0.208970525503034 -5.62798229533298e-20)
(0.530056185024056 0.216014248592031 9.486830127706e-18)
(0.560648428849812 0.216898530447173 -1.22054629527132e-17)
(0.587336811676734 0.211105440025589 7.29291562419537e-21)
(0.607225099000198 0.197678789770042 -3.93934380897779e-21)
(0.616417173297632 0.176990393077072 2.01984597142243e-17)
(0.614743433627346 0.151429252892777 -1.12637084263632e-17)
(0.599486715256896 0.122208743121917 3.46103272649441e-21)
(0.572429753491505 0.0931432908569939 -1.31551440970723e-17)
(0.538576072754608 0.0668109568015816 1.38152332129712e-17)
(0.504518114081885 0.0449634069533497 6.99586058878571e-21)
(0.473063024004013 0.0269350538605392 -3.65228171402229e-18)
(0.442884882881616 0.0119637934398094 -7.15347108407199e-21)
(0.414189822711637 -0.000318445556859328 4.686451844945e-19)
(0.387068428566818 -0.0103356631079706 1.84393611087946e-18)
(0.360773779255532 -0.0184071007370946 -3.64468962269047e-18)
(0.334867882337204 -0.0247158739566881 3.5525849103353e-21)
(0.309549744591822 -0.0294516911290173 0)
(0.28377610307273 -0.0327022173077333 6.85860350929173e-18)
(0.258566562377284 -0.0346062720679813 0)
(0.233065770515963 -0.0352901404738189 -1.29761506957956e-17)
(0.206768077339584 -0.0347141091946712 -1.25676756304589e-17)
(0.179450173756571 -0.0328746744846088 1.21557743475589e-17)
(0.153582302839167 -0.0302566958399811 -1.17292177810305e-17)
(0.127166714220356 -0.0266475870297062 4.26216571526362e-22)
(0.101949331078349 -0.0225002336292894 -1.08761225084513e-17)
(0.0776559935895325 -0.0178367271401814 4.89914590468539e-21)
(0.0567159335481936 -0.01345763179248 -5.13407391560968e-21)
(0.038182599284554 -0.00918355198376334 0)
(0.0220809341898063 -0.00531580495974204 1.85020084256603e-17)
(0.00889151543974838 -0.00196721018533738 -1.76939903824622e-17)
(-0.00139998310328891 0.000659615003242247 -1.67599019981561e-17)
(-0.00974797878956837 0.00289482371342403 -1.13051058324045e-20)
(-0.016945600067809 0.00474984183635935 7.4257865367466e-21)
(-0.0210348361776325 0.00572954940072239 1.34872062470606e-17)
(-0.0246724616513942 0.00664503454819229 -6.40194067200873e-21)
(-0.0270028517769048 0.0070711717819221 1.15828829751506e-17)
(-0.0281005212196131 0.00718116853742317 5.49666354319434e-21)
(-0.0281718790990612 0.00696387133304358 0)
(-0.0277241647403209 0.00663441928881796 -4.54308745260883e-18)
(-0.0259524178914031 0.00589821627296831 -4.11195145307886e-18)
(-0.0234133261333538 0.00508896108309954 -3.73946899610404e-18)
(-0.0205494442045936 0.00419660609315224 -3.35249683484914e-18)
(-0.0162721120474684 0.00305767037922045 2.97949186641848e-18)
(-0.0117737720534158 0.00200564199432632 -2.37980539228977e-21)
(-0.00599781982710764 0.000764936963761816 -2.27032569677524e-18)
(0.000596147832208573 -0.000400178327049342 0)
(0.00787121410041141 -0.00152593414932873 0)
(0.0162356204603499 -0.00258506862025063 1.18654036084391e-18)
(0.025469017103403 -0.00350533775537841 -4.28996535154196e-19)
(0.0357273971520016 -0.0042599646207756 0)
(0.0470291824664806 -0.0047988112241187 0)
(0.0591479941865223 -0.00506416833794527 0)
(0.0723715803470466 -0.00504240261952446 0)
(0.0866910002070836 -0.00468885089995862 5.87880414205434e-20)
(0.10207056143568 -0.00398926896889204 4.26589843449098e-20)
(0.118985578156737 -0.00293599074306941 -3.4325421774734e-17)
(0.137839182323046 -0.00177796218440352 -3.73615935498624e-17)
(0.155228510587844 -0.00100233510347973 -4.37137770074027e-22)
(0.169275478178437 -0.00067321043916622 4.30368617602879e-22)
(0.180836815015392 -0.000523602840349509 -5.20531977246477e-23)
(0.190695388297171 -0.000434059849305001 3.91120218653903e-22)
(0.199243000172443 -0.000368738964836092 -3.8892988788584e-22)
(0.206716027578857 -0.00031520824580949 0)
(0.213268444316017 -0.000269890778307497 3.28742637918895e-22)
(0.219018664829358 -0.000231178821613656 -3.27384270356128e-22)
(0.224067136183286 -0.000198054120047837 0)
(0.228501501585009 -0.000169761521372186 0)
(0.232399033566676 -0.00014564362882919 0)
(0.235827834067853 -0.000125121249336799 0)
(0.238847804365194 -0.000107680722306091 0)
(0.241511491505302 -9.28723830279634e-05 0)
(0.243864848576318 -8.03108812360177e-05 0)
(0.245948060006619 -6.96599205294647e-05 -8.46830124544809e-23)
(0.247796140521749 -6.06403857541842e-05 8.46372918134241e-23)
(0.249439683898448 -5.30074772901855e-05 7.23206882655412e-23)
(0.250905377627793 -4.65606855470518e-05 -1.39090408142803e-22)
(0.252216469441072 -4.11256215521734e-05 1.28422275549269e-22)
(0.253393412532402 -3.65621566517928e-05 -6.16394879555684e-23)
(0.254453863839211 -3.27419191185617e-05 5.2407371139138e-23)
(0.255413835352817 -2.95823341300684e-05 -5.24032456521024e-23)
(0.256286472935581 -2.69656546778997e-05 4.43271913953127e-23)
(0.257085391887937 -2.49023104920105e-05 -3.68772764079287e-24)
(0.257818813673209 -2.31900396094792e-05 -7.77784204218326e-23)
(0.258502318610731 -2.21084336528957e-05 3.7140970200584e-23)
(0.259133559247842 -2.10075841607482e-05 1.52958303138687e-23)
(0.259745046237566 -2.11942783474381e-05 -1.52945668534245e-23)
(0.260296517916284 -2.00595802764985e-05 0)
(0.260898308569553 -2.31423522097557e-05 0)
(0.261351829960765 -1.9450322610904e-05 0)
(0.262103802526483 -3.24705288859547e-05 0)
(0.262278693461895 -1.44586056517393e-05 0)
(0.263733558295683 -7.16674664882454e-05 0)
(0.262920448818626 4.83299482134065e-05 0)
(0.266019919384146 -0.000280960602756151 0)
(0.400762213409566 2.1189710342322e-05 -4.69112625872887e-23)
(0.400583641096705 7.67247410225471e-05 4.69755098583414e-23)
(0.400077362498894 0.000106510147095667 0)
(0.399333487287981 0.000125940570063934 0)
(0.398417074051172 0.000147598237899151 0)
(0.397318485520424 0.000170073099493952 -3.7684550506089e-22)
(0.396030835870364 0.000193519426391328 3.77325739121086e-22)
(0.394545553705431 0.000219296463171551 0)
(0.39284512914489 0.000248158502413349 0)
(0.390905862089983 0.000280796825870367 0)
(0.388698160360752 0.000318062351530659 0)
(0.386185389077132 0.000360926652447101 -7.9211794029186e-22)
(0.383322729842987 0.000410541453591531 7.94469754777098e-22)
(0.38005562431649 0.000468328546700352 -8.17880965280596e-22)
(0.3763173072973 0.000536090860184848 8.21091755432919e-22)
(0.372025730994173 0.000616168493835974 0)
(0.36707820113801 0.000711696765736818 0)
(0.361345414150907 0.000827124257352122 -9.02491391015669e-22)
(0.354655964966169 0.000968585068314505 9.08936194671688e-22)
(0.346791979675297 0.00114850357123665 0)
(0.337387972010788 0.00138078578289213 -1.94431467435351e-24)
(0.326078226358462 0.00176290284739584 0)
(0.314035538206944 0.00253834473373578 0)
(0.30284005830643 0.00382606693197807 0)
(0.293455214916984 0.00565904151484556 6.36538951814956e-19)
(0.286400488328144 0.00804964175797305 -3.31726761673869e-19)
(0.281810347265619 0.0110268560703212 -3.05772970232283e-21)
(0.280094608104948 0.0146809064265095 -7.21459755890291e-19)
(0.28087264304546 0.0190430122911803 2.81629949094196e-21)
(0.284398475089796 0.0242998993125088 0)
(0.290599416532743 0.0305433783991646 2.8492308687271e-21)
(0.29902343095276 0.0378556223286271 -2.80316390463241e-21)
(0.309721721504731 0.0464270612493842 -4.60868176362118e-21)
(0.322726736010042 0.0564116632714391 0)
(0.33797685749774 0.0678866225977637 -2.58382259688596e-18)
(0.354816545783373 0.0808291371466324 -5.44003103644088e-21)
(0.374220069132317 0.0957033748837105 -1.87307833497829e-20)
(0.395316047205183 0.112071884931466 -1.80213106866421e-21)
(0.419004814604754 0.130562289030325 -3.3477462548639e-18)
(0.444902112099155 0.150704447871284 2.66379856268011e-18)
(0.475229959622913 0.17358488706827 -5.34461263630718e-22)
(0.509414431796916 0.197353029711744 1.52116947741289e-18)
(0.547318440461929 0.221891267625667 0)
(0.589507624231116 0.245690104096189 -1.83736629026862e-18)
(0.63466850847385 0.266701852991171 -4.07385096461501e-23)
(0.681378559149029 0.28325978564348 5.31932014038967e-18)
(0.729085198737313 0.294210042363614 3.32903904974478e-20)
(0.775854974276513 0.297563981687817 9.52965832173049e-18)
(0.819481627678588 0.292415930228195 2.59667847982586e-21)
(0.856549231863859 0.277363585011416 3.68282717017341e-21)
(0.882193842364123 0.252550008760703 -1.59894821479926e-17)
(0.894592139881011 0.220337447030315 0)
(0.890037806225376 0.182114575287835 -9.12213726264596e-21)
(0.868843542832732 0.14253526775769 2.04977653926367e-17)
(0.835212104147072 0.105028581406505 1.36343333924655e-22)
(0.796551868247747 0.0724362724344292 5.49369507818971e-18)
(0.757510012142206 0.0445418033635586 0)
(0.718499653424125 0.0207722180988482 1.40107480047207e-18)
(0.680240246349791 0.000793907313623546 -1.74209633706523e-19)
(0.64310959747351 -0.0158922626959657 0)
(0.60661931328176 -0.0296951396822744 2.69464776955878e-18)
(0.570350948091795 -0.0408604689363276 0)
(0.534468552069365 -0.0496270833290635 -5.10248019388514e-18)
(0.497953399637646 -0.0561706582262164 -4.94027640628673e-18)
(0.461760743022143 -0.060603707241124 4.53254050516025e-21)
(0.42501118738238 -0.0631613766714225 -9.18099959263924e-18)
(0.38718626489312 -0.0638160302843616 8.81549107865986e-18)
(0.347829230736556 -0.0625669590890728 -2.82315800362193e-22)
(0.309505602782725 -0.0598627114892085 -4.09528778283444e-21)
(0.270307202493614 -0.055623522713382 -3.63104089689127e-21)
(0.232187343895364 -0.0503168978341523 7.39468418859e-18)
(0.194809654507135 -0.0440297730864728 0)
(0.161360668970355 -0.037740337284817 0)
(0.130863430012039 -0.0313409191386808 0)
(0.103961320471297 -0.0253736871586067 -1.23281272176554e-17)
(0.0809335393339423 -0.0199374677074515 1.17689734457117e-17)
(0.0622717842428724 -0.0154381213446069 2.23658764714676e-17)
(0.0466041583862466 -0.0114548722857659 -1.06145007477911e-17)
(0.0333094705332928 -0.00811471153084906 0)
(0.0243994937721608 -0.00590757744651706 -9.42709081580155e-18)
(0.0167927823087414 -0.00390321878516475 -8.81485206688101e-18)
(0.0114822075111514 -0.00265683623361658 -8.18732487690955e-18)
(0.00814673917603675 -0.00185833779305806 0)
(0.00666102418137754 -0.00158276350900922 -3.20768430636698e-21)
(0.0061385042861996 -0.00149357139264288 3.12365269334384e-18)
(0.00765686177567796 -0.00198064674997532 0)
(0.0103387506332805 -0.00255980005768131 2.44969357338586e-18)
(0.0137046141789059 -0.00329488641145787 -2.21703671223412e-21)
(0.0188798497830754 -0.00431421996056816 -3.34153664341337e-21)
(0.0245376583818123 -0.00523841677924162 3.26715356081223e-21)
(0.0317475818640312 -0.0063698713688537 1.28527636371716e-18)
(0.0400067585750689 -0.0073845042557503 -1.04978298262433e-18)
(0.0491496988829987 -0.00834330410980332 0)
(0.0595099098617107 -0.00918219925336516 -6.29435712741944e-19)
(0.0709106579963217 -0.00983129586205245 7.45956553609881e-22)
(0.0834537605827 -0.0102538809073433 -1.50495417072967e-19)
(0.0971614354988393 -0.0103977355292315 0)
(0.111824490229971 -0.0102059683637548 2.56554744799178e-20)
(0.127661193373281 -0.00965823031558643 -1.66450668692213e-22)
(0.144700848783603 -0.00871571593526301 -3.01981842609244e-20)
(0.162908911979476 -0.00737663790832266 -4.44587801934909e-20)
(0.182636876698312 -0.00565127859344918 1.80116505021693e-17)
(0.204329272051149 -0.00388169233353362 1.9529586743555e-17)
(0.225380366696469 -0.00266438188026906 1.84212652703427e-21)
(0.24374442541006 -0.00204774396516489 0)
(0.259659482645991 -0.00169218089877607 0)
(0.273653858344942 -0.0014480905642569 -2.15309580787845e-22)
(0.286075807054941 -0.00125955138403822 2.16298939815092e-22)
(0.297166727711662 -0.0011017551232477 1.68261888500183e-17)
(0.307095336632293 -0.000965752021765794 1.60886435528012e-17)
(0.315993230624719 -0.000847224847419425 3.65429627879992e-22)
(0.323971751381806 -0.000743578517000388 -1.7807080149702e-22)
(0.33112860990587 -0.000652960113143379 0)
(0.337551125835296 -0.000573807734989979 1.46700666210722e-22)
(0.343317660036821 -0.000504746241609291 -1.03671679774767e-23)
(0.348498714304426 -0.000444546684831153 -2.6582758631702e-22)
(0.353157662580073 -0.000392108407346145 1.28620922055057e-22)
(0.357351324191317 -0.000346461783004164 1.10983881985488e-22)
(0.361130694523825 -0.000306741383837642 -1.11495398509783e-22)
(0.364541280341023 -0.000272199211677759 0)
(0.367623877403574 -0.000242170370896977 0)
(0.370414872595827 -0.000216083909385913 0)
(0.372946738972304 -0.000193438384336377 -6.61593564198372e-18)
(0.375248583579099 -0.000173806772931182 -6.14314255453687e-18)
(0.377346197971633 -0.000156808394056727 0)
(0.379263085040688 -0.000142146339862375 0)
(0.38101952453542 -0.000129505495369263 0)
(0.382635305589476 -0.00011875492309581 2.56066538010137e-23)
(0.38412519685191 -0.000109518600188284 -2.56709119805324e-23)
(0.38550902380909 -0.000102047071630664 2.14010424771534e-23)
(0.386791950593858 -9.54478464079421e-05 -2.14474913918668e-23)
(0.388005941946913 -9.13034391015941e-05 0)
(0.38912541306277 -8.63326396601992e-05 0)
(0.390242691505932 -8.74762202658013e-05 -6.78334797095888e-24)
(0.391207414544423 -8.10971602230852e-05 6.79448937067298e-24)
(0.39237541617766 -9.68731063846904e-05 -2.35998320741441e-24)
(0.393068260783746 -7.45961506170682e-05 2.3638733868132e-24)
(0.394737574029969 -0.000153452672601763 -5.48562811320897e-25)
(0.394646591762763 5.89189389277496e-06 3.22403820662978e-25)
(0.39774685168703 -0.000483585492167356 2.26631608995568e-25)
(0.487942886984986 3.15042817779489e-05 0)
(0.487811464845384 0.000106473776092771 6.64062737446881e-23)
(0.487401005575442 0.000152445478042351 -6.6422804512572e-23)
(0.486760900571352 0.000188673194970011 0)
(0.485935068096426 0.000226722593896833 0)
(0.484913428313793 0.000265242736932048 0)
(0.483689404503044 0.000305286515403583 -2.67921393822414e-22)
(0.482254991618479 0.000348766595849238 2.68207314712685e-22)
(0.480594253433572 0.000396897651987877 0)
(0.478685188641423 0.000450893860158118 0)
(0.476499809282017 0.000512168348981963 0)
(0.474003060759476 0.000582321767812742 0)
(0.471151704014375 0.000663248583649245 5.6690463294052e-22)
(0.467892802765613 0.000757275179040689 7.8910229738004e-24)
(0.464161378473608 0.0008673365887301 -1.16473136332542e-21)
(0.459877467038513 0.000997234871134848 1.18858462080385e-21)
(0.45494108742512 0.00115204032422128 -6.0190802732112e-22)
(0.449226548655693 0.00133892402378638 0)
(0.442568540494329 0.00156777965728542 0)
(0.434756146733127 0.00185781424807803 0)
(0.425458672454192 0.00223082888205094 0)
(0.414291528506357 0.00279863699817104 -1.47729234342922e-21)
(0.402027101403918 0.00385013109317919 1.49672520448019e-21)
(0.389969564421197 0.0055209690074202 -1.03203169366004e-19)
(0.379118072634472 0.00785151009521615 -2.17407108536605e-19)
(0.370169089965272 0.0108574724609888 1.81440089786509e-22)
(0.363485392537911 0.0145652193462099 -4.73517731617389e-19)
(0.359536625318952 0.0190618544446727 4.86311540913147e-19)
(0.358168165311604 0.0243632566322823 -9.88847124727748e-19)
(0.359603411506339 0.0306568931793414 -9.88337429047876e-19)
(0.36388658160444 0.0380204724994586 9.81747333164654e-19)
(0.37070803971747 0.046546764129594 -1.93639987199005e-18)
(0.380093075195785 0.0564290448924824 -1.89600634325268e-18)
(0.392079989886693 0.0678173105895904 1.75864005788855e-21)
(0.406661331769836 0.0807972308522757 -6.49524397211077e-23)
(0.423329273963236 0.0953844732551692 -1.64113743126746e-18)
(0.442805686774393 0.112005755094612 -1.89022029106632e-20)
(0.46456952820576 0.130291489250913 0)
(0.489247428791676 0.150827518831504 2.31200218090234e-18)
(0.516752854825342 0.173198598206666 -1.80453062142768e-18)
(0.548792884266908 0.198294252711865 -2.13406551781411e-22)
(0.585523865943996 0.224390694816159 -5.23679568801288e-19)
(0.626748682444371 0.251321331569602 -9.67038253318551e-23)
(0.673265339818523 0.277532846744341 -1.39175069094898e-18)
(0.724145263975332 0.301013593127425 2.31507068551458e-22)
(0.778124961702593 0.320053151726949 4.00194932579614e-18)
(0.834526503709387 0.333278141772391 -5.54093037844676e-18)
(0.89160001911075 0.338545235666498 -7.87094156058629e-22)
(0.946995529029922 0.334702577547797 -9.17675423831083e-18)
(0.99752325437053 0.320180965100026 0)
(1.03808076834117 0.294890349555693 3.29393922435857e-21)
(1.06577952012357 0.260870004092549 -7.09280281462225e-18)
(1.07638870858614 0.219354404158036 -7.73193513804562e-18)
(1.0684139297045 0.175066411617211 -8.18214127347017e-18)
(1.04428251127779 0.131643845426996 8.47937898074583e-18)
(1.01012774506305 0.0925067231352015 -8.77231037258775e-21)
(0.971174584789778 0.0579386490989936 4.25766561444801e-21)
(0.929337731179016 0.0278063333103834 -1.01522793682469e-20)
(0.886293460649825 0.0020389703333174 8.30315499224226e-21)
(0.843126323028979 -0.0197837797104881 -4.08859185004977e-21)
(0.799952798161607 -0.0380688055666413 -3.85554174683014e-21)
(0.756676038554134 -0.0530839346075361 3.83096144184787e-21)
(0.713572842390676 -0.0650973733975804 2.77045675087603e-21)
(0.669848789950936 -0.0743720161018122 3.53233751204541e-18)
(0.62628271424582 -0.0809803511273063 -6.71628705121742e-18)
(0.582186841078551 -0.0852799655174955 6.38380173995427e-18)
(0.537054821080784 -0.0872510946478263 -3.0441979386368e-21)
(0.490316337574141 -0.0869308583770565 0)
(0.444138949483024 -0.0846410941562681 -5.3929276767922e-18)
(0.397075810099696 -0.0805099364282568 -5.08063105810194e-18)
(0.35077952785052 -0.0748732642269342 0)
(0.305089694222174 -0.067960338641595 0)
(0.263033498117072 -0.0606413644244693 -1.98210456593592e-21)
(0.224176763712982 -0.0530391574198145 -3.97950099839854e-18)
(0.189308225449402 -0.0457268418968612 -7.47493304155541e-18)
(0.158772407056094 -0.0388817002403049 -7.00953643810355e-18)
(0.133231427820364 -0.0329603754369499 -6.55525201308758e-18)
(0.111506419823668 -0.0276398909141667 1.22534314126062e-17)
(0.092929887484584 -0.0230791175022636 -5.70088066267178e-18)
(0.0792243025597698 -0.0196791634414809 5.2703351425774e-18)
(0.0677691884652711 -0.0166606504737848 -9.17347163509315e-21)
(0.0591069636915835 -0.0144896551267642 4.45222588261117e-18)
(0.0529522774628032 -0.0128598408038777 0)
(0.0491460987525774 -0.0118418336087106 1.83182390156391e-18)
(0.0467473605102783 -0.0111032272540101 0)
(0.0465632612903269 -0.010965045789357 0)
(0.0479773311828298 -0.0109908438727746 0)
(0.0503489611154922 -0.0112310575438215 0)
(0.0546219609828552 -0.0117598823136265 9.34335918690957e-19)
(0.0597263312273483 -0.0122504128684961 7.92713631842902e-19)
(0.0663859540052789 -0.0129416262916154 2.11896921399121e-22)
(0.0743179545485613 -0.0135401832418915 5.33427035112622e-19)
(0.0832664455645723 -0.0140977218803693 0)
(0.0934995621886803 -0.0145355144674261 5.49208113993297e-22)
(0.104884382117845 -0.0147878300281351 -5.31711906128169e-22)
(0.117482091482489 -0.0148129118478301 7.67521743541552e-20)
(0.13132185985151 -0.0145593029684153 1.11110655333388e-22)
(0.146225816205855 -0.0139730859208931 6.31117819485517e-22)