/*--------------------------------*- C++ -*----------------------------------*\
| =========                 |                                                 |
| \\      /  F ield         | OpenFOAM: The Open Source CFD Toolbox           |
|  \\    /   O peration     | Version:  3.0.1                                 |
|   \\  /    A nd           | Web:      www.OpenFOAM.org                      |
|    \\/     M anipulation  |                                                 |
\*---------------------------------------------------------------------------*/
FoamFile
{
    version     2.0;
    format      ascii;
    class       volScalarField;
    location    "7000";
    object      V;
}
// * * * * * * * * * * * * * * * * * * * * * * * * * * * * * * * * * * * * * //

dimensions      [0 3 0 0 0 0 0];

internalField   nonuniform List<scalar> 
14000
(
0.000120013538771683
0.000120013521766373
0.000120013534848073
0.000120013531795376
0.00012001352427539
0.000120013542843194
0.000120013531780916
0.000120013507351076
0.000120013565912138
0.000120013537478499
0.00012001351025936
0.000120013509370067
0.000120013619253351
0.000120013428959367
0.000120014601291936
0.000120012473021629
0.000120013592575741
0.000120013407724642
0.00012001366312345
0.000120013517268318
0.00012001336102365
0.000120011735576634
0.000120001003887026
0.000119957114984893
0.000119858179421916
0.000119678359185123
0.000119391087133765
0.000118966519390714
0.000118380014123152
0.000117599097321303
0.000116601507441132
0.000115364974169511
0.000113865719964573
0.000112087947089969
0.000110031179797771
0.000107689218696521
0.000105052111826361
0.000102170057899418
9.90117226618857e-05
9.56506839738944e-05
9.2070808545156e-05
8.84635698927858e-05
8.48230211456918e-05
8.12981467715849e-05
7.79707677399424e-05
7.4874356889325e-05
7.2043763275212e-05
6.95155663513779e-05
6.72839688418573e-05
6.53665012296826e-05
6.3741425995629e-05
6.2364473247066e-05
6.12407249366778e-05
6.03220522979769e-05
5.95979026880673e-05
5.90463414850528e-05
5.8683176608249e-05
5.85031327416041e-05
5.84996304770119e-05
5.86695381434365e-05
5.9007975340731e-05
5.95079018130426e-05
6.01614396933474e-05
6.0961652755824e-05
6.19043769083016e-05
6.29769698958888e-05
6.4177064994889e-05
6.5498390002466e-05
6.69390979965334e-05
6.84787716024312e-05
7.01303970053575e-05
7.18705730873639e-05
7.37152464913217e-05
7.56226233546254e-05
7.76136678254849e-05
7.96584473012652e-05
8.17603022975759e-05
8.38839877937018e-05
8.60529965277683e-05
8.82419755840862e-05
9.04193647094641e-05
9.26102946360962e-05
9.4781624378272e-05
9.69279154659573e-05
9.9030851808594e-05
0.000101102209538907
0.00010309418789035
0.000105022665706374
0.000106877820487884
0.000108630735963586
0.000110300886660159
0.000111843957396815
0.000113274955067864
0.000114583285338288
0.000115754251862642
0.000116789135550174
0.000117681656532878
0.000118424603670922
0.000119027687693389
0.000119476170190779
0.000119786227994698
0.000119949259714487
0.000120002093755049
0.000120012076231603
0.000120012375339446
0.000120014938824826
0.00012001186812426
0.000120015154364466
0.000120012206414048
0.000120014101246606
0.000120013057545484
0.000120014343900225
0.000120011912246333
0.000120015952971894
0.000120011344432912
0.000120015763175457
0.000120011353301398
0.000120014437376604
0.000120013821268418
0.000120011774031287
0.000120015912406448
0.000120011129754282
0.000120016113146326
0.000120011701826998
0.000120014356399222
0.000120013104544886
0.000120013827457398
0.000120013738256783
0.000120013600687255
0.00012001232288419
0.000120014168653529
0.000120013648410716
0.000120013557821495
0.000120014359049965
0.000120012356407599
0.000120013401125333
0.000120013935813743
0.00012001398340025
0.000120014086014952
0.000120012807600678
0.00012577911103803
0.000125779093307401
0.000125779106947068
0.000125779103764166
0.000125779095923433
0.000125779115283203
0.000125779103749089
0.000125779078277255
0.000125779139336095
0.000125779109689688
0.000125779081309589
0.000125779080382359
0.000125779194952446
0.00012577899654194
0.000125780218877482
0.000125777999831012
0.000125779167136973
0.000125778974401494
0.000125779240693724
0.000125779088617494
0.000125778925713679
0.000125777214981781
0.000125765926040189
0.000125719876509964
0.000125616135363362
0.000125427656318071
0.000125126634972941
0.000124681849430707
0.000124067513630931
0.000123249673536481
0.000122205030326286
0.000120910296989147
0.000119340612171021
0.000117479444357568
0.00011532626158377
0.000112874581397598
0.000110114005369713
0.000107096887402786
0.000103790578990194
0.000100271830664006
9.65238724273634e-05
9.27464727728986e-05
8.89336197270788e-05
8.52408587484117e-05
8.17537814979284e-05
7.85075747637537e-05
7.55388529302709e-05
7.28860441940187e-05
7.05433884319084e-05
6.85294397697147e-05
6.68217847783791e-05
6.53744461268054e-05
6.41928582107333e-05
6.32268892694197e-05
6.24654827797556e-05
6.18856516856517e-05
6.15037502259946e-05
6.13141815906567e-05
6.13099926411193e-05
6.14878301996947e-05
6.18425289410931e-05
6.23666760904381e-05
6.30519877723472e-05
6.38911697390744e-05
6.48798139515544e-05
6.60046824914753e-05
6.72632628240379e-05
6.86489636582518e-05
7.01597947648139e-05
7.17744195297834e-05
7.35063237569428e-05
7.53310437860524e-05
7.72651284465899e-05
7.92649313184893e-05
8.13522488965248e-05
8.34957950808316e-05
8.56989847659008e-05
8.79250180997058e-05
9.01983336488771e-05
9.24924164272359e-05
9.47743210925112e-05
9.7070200370791e-05
9.93454346116067e-05
0.00010159430721435
0.000103797679276301
0.000105967771932643
0.000108054706275675
0.000110075011480028
0.000112018395573739
0.000113854681234457
0.000115604132181076
0.000117220512158269
0.000118719454528046
0.000120089883572906
0.000121316455473723
0.000122400487190633
0.000123335420853189
0.000124113736896433
0.000124745553211018
0.000125215502744971
0.000125540462600156
0.000125711473151373
0.000125767018376393
0.000125777555377979
0.000125777892955146
0.000125780570142499
0.000125777369040926
0.000125780795530856
0.000125777721851947
0.000125779697503938
0.000125778609286305
0.000125779950507408
0.000125777415137203
0.000125781628210027
0.000125776823105125
0.000125781430318219
0.000125776832351969
0.000125780047970692
0.000125779405584023
0.000125777271026904
0.000125781585914316
0.000125776599269974
0.000125781795216351
0.0001257771957429
0.000125779963539478
0.000125778658290368
0.000125779412036893
0.000125779319031677
0.000125779175594497
0.00012577784328986
0.00012577976778588
0.000125779225353482
0.000125779130900386
0.000125779966303236
0.000125777878243159
0.000125778967520669
0.000125779525014933
0.000125779574631204
0.00012577968162261
0.00012577834868067
0.000131821230160555
0.000131821211678859
0.0001318212258963
0.000131821222578572
0.000131821214405706
0.000131821234585554
0.000131821222562855
0.000131821196012039
0.000131821259657322
0.000131821228755097
0.000131821199172824
0.000131821198206313
0.000131821317629568
0.000131821110814434
0.000131822384927918
0.000131820071882975
0.000131821288635841
0.000131821087736116
0.000131821365308446
0.000131821206790279
0.000131821036991516
0.000131819236173788
0.000131807359137084
0.000131759040196106
0.000131650257772191
0.000131452702616993
0.000131137277577561
0.000130671322137392
0.000130027855032579
0.00012917137910954
0.000128077511693789
0.000126721905559223
0.00012507856932621
0.00012313020498969
0.000120876218378709
0.000118309831860683
0.000115420182243654
0.000112261856690501
0.000108800848260322
0.000105117196601448
0.000101193478124779
9.72380649924978e-05
9.32448987758155e-05
8.93763417677926e-05
8.57219213856947e-05
8.2318631026355e-05
7.92049440724723e-05
7.64212351615649e-05
7.39618142578603e-05
7.18463261373255e-05
7.00516853961291e-05
6.85301667504053e-05
6.72875846323168e-05
6.62717387235782e-05
6.5471044755885e-05
6.48614128898722e-05
6.44597488568255e-05
6.42601122149059e-05
6.42551524797799e-05
6.44412773299256e-05
6.48130178679764e-05
6.53625675472031e-05
6.60812142909535e-05
6.69612862097065e-05
6.79981152839806e-05
6.9177840514002e-05
7.04977933911022e-05
7.19510464776144e-05
7.35354539768605e-05
7.5228722026617e-05
7.70448477513709e-05
7.89582600697793e-05
8.0986122706222e-05
8.30828631474592e-05
8.52711329084173e-05
8.75182358100123e-05
8.98276561957048e-05
9.21609784606943e-05
9.45436143280379e-05
9.69478365193415e-05
9.93392611051945e-05
0.000101745093537608
0.000104129175774341
0.000106485498079571
0.000108794064908304
0.000111067551827607
0.000113253923649669
0.000115370379970688
0.0001174061370652
0.000119329708716855
0.000121162171244027
0.000122855295686954
0.000124425362599909
0.000125860794515024
0.000127145574861963
0.000128281055865856
0.000129260390657209
0.000130075740202978
0.000130737643227531
0.00013123008171998
0.000131570659053733
0.000131750045612671
0.000131808449136232
0.000131819574658176
0.000131819954928248
0.00013182275033865
0.000131819414270774
0.000131822985998192
0.00013181978212875
0.000131821841469071
0.000131820707154709
0.00013182210518966
0.000131819462421682
0.000131823853959614
0.000131818845311137
0.000131823647685131
0.000131818854949612
0.000131822206781622
0.000131821537183443
0.000131819312206774
0.000131823809872286
0.000131818611994383
0.000131824028040319
0.000131819233733778
0.000131822118773787
0.00013182075823462
0.000131821543909674
0.000131821446964738
0.000131821297451715
0.000131819908710745
0.000131821914728142
0.000131821349318354
0.000131821250864282
0.000131822121654719
0.000131819945144655
0.000131821080563802
0.000131821661673378
0.000131821713391526
0.000131821824915055
0.000131820435509819
0.000138153117629928
0.000138153098371081
0.000138153113186362
0.000138153109729124
0.000138153101212591
0.000138153122240996
0.000138153109712748
0.000138153082045474
0.000138153148367027
0.000138153116165371
0.000138153085339165
0.000138153084332024
0.000138153208776994
0.000138152993265328
0.000138154320954983
0.000138151910647058
0.000138153178564086
0.000138152969216578
0.00013815325846075
0.000138153093276937
0.000138152916344392
0.000138151020340153
0.000138138522483939
0.000138087819639899
0.000137973748463367
0.0001377666797503
0.000137436165832467
0.000136948044621376
0.000136274086622753
0.000135377186242288
0.00013423182846287
0.000132812560765067
0.00013109221389133
0.000129052689314638
0.00012669332405746
0.000124007032751326
0.000120982468582328
0.00011767653127448
0.000114053811023173
0.00011019775507207
0.000106090269896275
0.000101948645965468
9.77668000863965e-05
9.37141736442002e-05
8.98844012074173e-05
8.63163809036073e-05
8.30505441504226e-05
8.01293152875904e-05
7.75471119545357e-05
7.53247415585629e-05
7.3438454437939e-05
7.18387389955853e-05
7.05318196688143e-05
6.94633618997815e-05
6.86212286993999e-05
6.79801747015143e-05
6.75576604710285e-05
6.73473780745393e-05
6.73415543751713e-05
6.75363387338539e-05
6.79259386504653e-05
6.85021312030239e-05
6.9255752590917e-05
7.0178732482912e-05
7.12661256510372e-05
7.2503419399054e-05
7.38877782823548e-05
7.54119206694627e-05
7.70735318176188e-05
7.88493213913019e-05
8.07538088851372e-05
8.27602693738784e-05
8.48864931937633e-05
8.7084906201618e-05
8.93790369850526e-05
9.17347208228231e-05
9.41555055019782e-05
9.66012971804331e-05
9.90985075888549e-05
0.00010161814507998
0.000104124332360102
0.000106645358000412
0.000109143464091293
0.000111612331875322
0.000114031074274862
0.000116412829991308
0.000118703327811121
0.000120920457705279
0.000123052920872741
0.000125067873322665
0.000126987227071317
0.000128760687427454
0.000130405202931455
0.000131908673292787
0.000133254383274932
0.000134443719295892
0.000135469534195782
0.000136323658273332
0.000137017064833531
0.000137533062297782
0.00013789000680541
0.00013807818696734
0.000138139604624384
0.000138151355018487
0.000138151782642095
0.000138154700920559
0.000138151225269819
0.000138154947289007
0.000138151608708728
0.00013815375464383
0.000138152572631812
0.00013815402945376
0.000138151275558038
0.000138155851759156
0.000138150632498198
0.000138155636810799
0.000138150642541925
0.000138154135317704
0.000138153437562992
0.000138151119026708
0.000138155805817939
0.000138150389370478
0.000138156033159844
0.000138151037253929
0.000138154043609139
0.000138152625859546
0.000138153444572207
0.000138153343550629
0.000138153187750618
0.00013815174061348
0.000138153830983492
0.000138153241798262
0.000138153139204208
0.000138154046611213
0.000138151778579375
0.000138152961742757
0.00013815356728774
0.000138153621180578
0.000138153737393754
0.000138152289564341
0.000144788622782251
0.000144788602719905
0.000144788618153295
0.000144788614551817
0.000144788605679965
0.000144788627585698
0.000144788614534757
0.000144788585713176
0.000144788654801735
0.000144788621256591
0.000144788589144281
0.000144788588095126
0.000144788717732073
0.000144788493229019
0.000144789876311303
0.000144787365442776
0.00014478868625865
0.000144788468176938
0.000144788769488681
0.000144788597413229
0.000144788413105728
0.000144786416493367
0.000144773263082303
0.000144720055811696
0.000144600436015206
0.000144383395173679
0.000144037074997863
0.000143525746462889
0.000142819876707307
0.000141880684107743
0.000140681470842802
0.000139195632436962
0.000137394772242213
0.000135259955821644
0.00013279044411739
0.000129978831027854
0.000126813266695819
0.000123353043748769
0.000119561305013448
0.000115525025589707
0.000111225426375251
0.000106889036136966
0.000102509772009016
9.82644228683752e-05
9.42509083055251e-05
9.05101351253251e-05
8.70845975275245e-05
8.40188787305223e-05
8.13075468173553e-05
7.89726491929572e-05
7.69897839723141e-05
7.53076175460858e-05
7.3932816918745e-05
7.28088477857194e-05
7.19229943006721e-05
7.12488003206642e-05
7.08042824608079e-05
7.05827395662434e-05
7.05759487132897e-05
7.07797800936294e-05
7.11880960753635e-05
7.17922333098303e-05
7.25825513302057e-05
7.35505593038188e-05
7.46910162720212e-05
7.59887279847374e-05
7.74406802312818e-05
7.90392180861058e-05
8.07818432572918e-05
8.26442284968769e-05
8.4641425915279e-05
8.67455087629592e-05
8.89749045078581e-05
9.12799598942327e-05
9.36851018152966e-05
9.61546366561921e-05
9.86921684321172e-05
0.000101255861076223
0.00010387315250209
0.000106513732726652
0.000109140175102234
0.000111781881179044
0.000114399429982308
0.000116986176906516
0.000119520307395677
0.00012201543110984
0.000124414959592112
0.000126737492889332
0.000128971192713773
0.000131081807456632
0.000133092107465308
0.00013494965802824
0.000136672096446976
0.000138246777824096
0.000139656261731102
0.000140901967382304
0.000141976435750498
0.000142871155138098
0.000143597547198387
0.000144138223946844
0.000144512321225312
0.000144709734115915
0.000144774331043739
0.000144786745202681
0.000144787225321517
0.000144790271233786
0.000144786651346477
0.000144790528764352
0.000144787050907275
0.000144789286373038
0.000144788055046235
0.000144789572648356
0.000144786703857168
0.00014479147098216
0.000144786033968321
0.000144791247065913
0.000144786044431032
0.000144789682929007
0.000144788956063238
0.000144786540795271
0.000144791423124256
0.000144785780696993
0.000144791659951054
0.000144786455610801
0.000144789587394317
0.00014478811049468
0.000144788963364866
0.00014478885812864
0.000144788695828389
0.000144787188315248
0.000144789365897642
0.000144788752131078
0.000144788645256668
0.000144789590521562
0.000144787227865143
0.000144788460391304
0.000144789091200288
0.00014478914734152
0.000144789268403296
0.000144787760168866
0.000151742252190565
0.00015174223129819
0.000151742247370099
0.000151742243619618
0.000151742234380716
0.000151742257192742
0.000151742243601852
0.000151742213587853
0.000151742285534771
0.000151742250601784
0.000151742217160914
0.000151742216068345
0.000151742351068689
0.000151742117277412
0.000151743557581123
0.000151740942831931
0.000151742318293133
0.000151742091188859
0.000151742404966596
0.000151742225771965
0.000151742033846802
0.000151739930860899
0.000151726085008938
0.000151670246415328
0.000151544805095531
0.000151317311408521
0.000150954433926628
0.00015041880885728
0.000149679542666995
0.000148696107828748
0.00014744057122338
0.000145885128153488
0.000144000103391388
0.000141765689807827
0.00013918106425033
0.000136238486439913
0.000132925583499185
0.000129304122120219
0.000125335753380553
0.000121111101977458
0.000116610688472189
0.00011207060456386
0.000107484796603179
0.000103037675157465
9.8831629322886e-05
9.49096847419345e-05
9.13165092221859e-05
8.80989603302901e-05
8.52518051225425e-05
8.27984142023535e-05
8.07137504099426e-05
7.89446256584072e-05
7.74981849129902e-05
7.63156291270357e-05
7.53836362479126e-05
7.46744814816457e-05
7.42067362580701e-05
7.397327844e-05
7.39654062071087e-05
7.41786878968788e-05
7.46066175935253e-05
7.52400659171221e-05
7.60688892762427e-05
7.70841529308398e-05
7.82803002673362e-05
7.96414243355276e-05
8.11643193850626e-05
8.2840936974339e-05
8.46685793183464e-05
8.66218406113164e-05
8.87163148513513e-05
9.09228239179818e-05
9.32604415028388e-05
9.56773558818032e-05
9.81989124418721e-05
0.000100787826435067
0.000103447749530352
0.000106135038021182
0.000108878181276938
0.000111645495092272
0.000114397946344765
0.000117166078667072
0.000119908743138515
0.000122618951476624
0.000125273924656544
0.000127887750072778
0.000130401439498047
0.000132834322372154
0.000135173995371595
0.000137384748553911
0.000139490232588012
0.000141435797352243
0.000143239789563724
0.000144888997218356
0.000146365227592226
0.000147669930932436
0.000148795324493344
0.00014973254315931
0.000150493470658428
0.00015105999960612
0.000151452072864717
0.000151659180317797
0.000151727131581383
0.000151740251139063
0.000151740789424334
0.000151743967852553
0.00015174019905426
0.000151744237014145
0.000151740615283353
0.000151742943235684
0.000151741660965946
0.000151743241354899
0.000151740253874986
0.000151745218227322
0.000151739556271184
0.000151744985047154
0.000151739567166777
0.000151743356198105
0.000151742599260211
0.000151740084066693
0.000151745168389496
0.000151739292521414
0.000151745415014348
0.000151739995358066
0.000151743256710868
0.000151741718708495
0.000151742606863826
0.00015174249727387
0.000151742328258779
0.000151740758376257
0.000151743026050409
0.000151742386890784
0.000151742275594922
0.000151743259967547
0.00015174079956242
0.000151742083080988
0.000151742739988266
0.000151742798452134
0.000151742924522421
0.000151741353888831
0.000159029200390029
0.000159029178641018
0.000159029195371913
0.000159029191467653
0.000159029181849935
0.000159029205597306
0.000159029191449157
0.000159029160204517
0.000159029235101427
0.000159029198736105
0.000159029163924078
0.000159029162786711
0.000159029303322387
0.000159029059945128
0.000159030559304665
0.000159027837344617
0.000159029269202944
0.00015902903278688
0.000159029359430236
0.000159029172888207
0.000159028973102042
0.000159026757608647
0.000159012180128317
0.000158953576579144
0.000158822027116964
0.000158583576647352
0.000158203355606228
0.000157642295083425
0.000156868081343975
0.000155838368781322
0.000154523934394639
0.000152895723381982
0.000150922729058822
0.000148584233390025
0.000145879320299697
0.000142799901436121
0.000139333060380206
0.000135543119607016
0.000131390194417916
0.000126968681977227
0.00012225838883622
0.000117505298070351
0.000112703418371371
0.000108045061572418
0.000103637277498712
9.95253274229192e-05
9.575617005882e-05
9.23790594898068e-05
8.93890166791935e-05
8.68108249518932e-05
8.46188344001075e-05
8.27579738713211e-05
8.12359047773331e-05
7.9991499231299e-05
7.90108003591234e-05
7.826475409453e-05
7.77724826289725e-05
7.75264128750544e-05
7.7517332869506e-05
7.77404844073098e-05
7.81889683776635e-05
7.88531620979072e-05
7.97223907732579e-05
8.07872509114589e-05
8.20418487999509e-05
8.34695323056348e-05
8.50668903391309e-05
8.68254595248509e-05
8.87423251729781e-05
9.07909600834495e-05
9.29875082480144e-05
9.53014890606054e-05
9.77526298412138e-05
0.00010028687926075
0.000102930520090246
0.00010564461233
0.000108432845204291
0.000111249700618713
0.000114124743512358
0.000117024857625359
0.0001199093452085
0.000122809920071806
0.00012568363883789
0.000128523150648334
0.000131304673991559
0.000134042779533226
0.000136675995631824
0.000139224399903655
0.000141674997251399
0.00014399056791907
0.000146195664042937
0.000148233343791342
0.000150122683715321
0.000151849881486427
0.000153395964445115
0.00015476241169373
0.000155941104657717
0.000156922813328141
0.00015771989712162
0.000158313506189032
0.00015872441804082
0.000158941705846618
0.000159013197111642
0.000159027066660756
0.000159027669366512
0.000159030985303661
0.000159027062918281
0.000159031266581042
0.00015902749636576
0.00015902991976963
0.000159028584923814
0.000159030230112468
0.000159027120138775
0.000159032288041291
0.000159026393931549
0.000159032045300194
0.00015902640527397
0.000159030349664424
0.000159029561690345
0.000159026943367993
0.000159032236159987
0.000159026119367476
0.000159032492897042
0.000159026851022059
0.000159030246098075
0.000159028645033941
0.000159029569605748
0.000159029455522316
0.00015902927957722
0.000159027645325769
0.000159030005979997
0.000159029340613195
0.00015902922475403
0.00015903024948827
0.000159027688200723
0.000159029024346531
0.000159029708188584
0.000159029769049649
0.000159029900289044
0.000159028265255817
0.000166665381993094
0.00016666535936087
0.000166665376771195
0.000166665372708386
0.000166665362700099
0.000166665387411836
0.000166665372689139
0.000166665340175674
0.000166665418114097
0.000166665380272005
0.000166665344046287
0.000166665342862736
0.000166665489105458
0.000166665235844817
0.000166666796092333
0.000166663963595337
0.00016666545360046
0.00016666520758369
0.000166665547491813
0.000166665353374444
0.000166665145484366
0.000166662810954295
0.000166647460194038
0.000166585950934409
0.000166447992277384
0.000166198056741755
0.000165799669081137
0.000165211982351269
0.000164401200807219
0.000163323086279707
0.000161947069153895
0.000160242793015705
0.000158177865153822
0.000155730616946995
0.000152900029670859
0.000149677652552386
0.000146050004579362
0.000142084045982904
0.000137738312876969
0.00013311109847833
0.000128181482970335
0.000123205672077569
0.000118177774676275
0.000113298288306857
0.000108679121600145
0.000104367895333573
0.000100413983322816
9.68691654700278e-05
9.37287786921353e-05
9.10191154143304e-05
8.87139418228182e-05
8.67562797110535e-05
8.51543488015187e-05
8.38446296063511e-05
8.28125004920221e-05
8.20275146232049e-05
8.15093376750819e-05
8.1249913243272e-05
8.12394856633052e-05
8.14729433098096e-05
8.1942967058571e-05
8.26394118628121e-05
8.35510419131375e-05
8.46679585813253e-05
8.59839079633317e-05
8.7481458875751e-05
8.91569799752055e-05
9.10015702589422e-05
9.30120791127983e-05
9.51608139371133e-05
9.74644754433141e-05
9.98912278617367e-05
0.000102461457567223
0.000105118790823947
0.000107890465092848
0.000110735819144202
0.000113658567952167
0.000116611251067773
0.000119624531665091
0.000122663801631602
0.000125686639527468
0.000128725956140489
0.000131736945563813
0.000134711874322198
0.000137625919396383
0.000140494138806935
0.000143252492965457
0.000145921825744629
0.000148488522292766
0.000150913800925008
0.000153223135318394
0.000155357214945097
0.000157335866239275
0.000159144672614261
0.000160763853347972
0.000162194913753973
0.000163429387076918
0.00016445766693202
0.000165292601844046
0.000165914576463017
0.000166345230800641
0.000166573210029461
0.000166648438286956
0.000166663105615508
0.00016666377963722
0.000166667238180253
0.000166663157551914
0.00016666753207412
0.000166663608769547
0.000166666130586224
0.000166664741533209
0.000166666453531951
0.000166663217264141
0.000166668595031817
0.000166662461566211
0.000166668342433162
0.000166662473369189
0.000166666577938799
0.000166665757965581
0.00016666303331494
0.000166668541043646
0.000166662175852259
0.000166668808206595
0.00016666293721885
0.000166666470166683
0.00016666480408433
0.000166665766202423
0.000166665647486136
0.000166665464396023
0.000166663763778756
0.000166666220297447
0.000166665527910673
0.000166665407346422
0.000166666473694596
0.000166663808394721
0.000166665198800633
0.000166665910412971
0.000166665973745668
0.000166666110314555
0.000166664408883667
0.000174667465252706
0.000174667441710858
0.00017466745982093
0.000174667455594832
0.000174667445184295
0.000174667470889235
0.000174667455574812
0.000174667421754578
0.000174667502825469
0.000174667463462445
0.000174667425780757
0.000174667424549644
0.000174667576670077
0.0001746673132305
0.000174668936186824
0.000174665989847302
0.000174667539738093
0.000174667283833507
0.000174667637403085
0.000174667435483827
0.000174667219248584
0.000174664758728517
0.000174648590397177
0.000174584027138862
0.000174439343043379
0.000174177368630703
0.000173759952812965
0.000173144395085971
0.00017229535355509
0.000171166620701736
0.000169726221360125
0.000167942444369478
0.000165781454731407
0.000163220592057797
0.00016025872426528
0.00015688702335667
0.000153091422165043
0.000148941600554856
0.00014439447295645
0.000139552352463375
0.000134393582105441
0.000129184923215534
0.000123920627952618
0.000118809668259114
0.000113969016599526
0.00010944878469848
0.000105300893021574
0.000101579784191972
9.82811810223676e-05
9.54329888534898e-05
9.30084259427008e-05
9.09485884509565e-05
8.92622999661835e-05
8.78835884758609e-05
8.67971362685973e-05
8.59710372333551e-05
8.54254895725797e-05
8.51519185892523e-05
8.51399888567001e-05
8.53842060578748e-05
8.58768021679237e-05
8.6607078791316e-05
8.75632074393827e-05
8.87347663171674e-05
9.01151164483618e-05
9.16860122981297e-05
9.34435861401961e-05
9.53784752906515e-05
9.7487272430656e-05
9.97410744187821e-05
0.000102157143790769
0.000104702235385147
0.000107397397755182
0.000110183850431495
0.000113089800964337
0.000116072799087578
0.000119136571810634
0.000122231647282127
0.00012538980780099
0.000128574891623733
0.000131742693786337
0.000134927347237196
0.000138082113991939
0.000141198856697362
0.000144251670836263
0.000147256104175409
0.000150145464023518
0.0001529413776941
0.000155629581302884
0.000158169678636099
0.000160588083654651
0.000162823039723345
0.00016489514268874
0.000166789337060956
0.000168485005501196
0.000169983676365643
0.000171276522147157
0.000172353548648625
0.000173228106635138
0.000173879792361367
0.000174331136321092
0.000174570344727586
0.00017464951907458
0.000174665035423101
0.000174665788362051
0.000174669394703473
0.000174665151221667
0.000174669701730517
0.000174665620760511
0.000174668243932972
0.000174666799051735
0.000174668579858325
0.000174665213519953
0.000174670807428485
0.000174664427449293
0.000174670544677579
0.000174664439726574
0.000174668709265385
0.00017466785633615
0.000174665022177367
0.000174670751270499
0.000174664130251999
0.000174671029171149
0.000174664922219188
0.000174668597161647
0.000174666864116915
0.000174667864903963
0.000174667741416345
0.000174667550967548
0.000174665781999846
0.000174668337249767
0.000174667617035036
0.00017466749162495
0.000174668600831436
0.000174665828408873
0.000174667274697484
0.000174668014910595
0.000174668080788724
0.000174668222846557
0.000174666453032528
0.000183052907133819
0.000183052882656248
0.000183052901486144
0.000183052897092071
0.000183052886267746
0.000183052912994384
0.000183052897071256
0.000183052861906762
0.000183052946199994
0.0001830529052724
0.00018305286609297
0.000183052864812919
0.000183053022979726
0.000183052749069159
0.000183054436533469
0.000183051373085156
0.00018305298457979
0.000183052718503709
0.000183053086126698
0.000183052876181708
0.000183052651363074
0.000183050057444328
0.000183033024421464
0.000182965250905467
0.000182813509136213
0.000182538915268863
0.00018210156953835
0.000181456839708531
0.000180567771215295
0.000179386108115933
0.000177878408497978
0.00017601155169797
0.000173750202490781
0.000171070666008282
0.000167971685013315
0.000164444039029072
0.000160473052686982
0.00015613120686418
0.000151373753065822
0.00014630714777398
0.000140908987941826
0.000135456923832727
0.000129945399831786
0.000124592154507328
0.00011951943621785
0.000114779987167114
0.000110428413860331
0.000106521966646426
0.000103056832935307
0.000100062642868541
9.75121107962677e-05
9.53443949853197e-05
9.35689724779644e-05
9.21173602174576e-05
9.09735116546625e-05
9.01039917460167e-05
8.9529516081265e-05
8.92409538573535e-05
8.92273511135801e-05
8.94827989526721e-05
8.99990493168373e-05
9.07648174096901e-05
9.17676484147497e-05
9.29965675763094e-05
9.44445240239013e-05
9.6092421086354e-05
9.79361372046286e-05
9.99658225069779e-05
0.000102177790260405
0.000104541880544698
0.000107075920933741
0.000109745201118109
0.000112571432286566
0.0001154933415532
0.000118540119689118
0.000121667457801911
0.00012487907908805
0.000128123430328919
0.000131433431694859
0.000134771304046018
0.000138090998458098
0.000141427893241117
0.000144733247416014
0.000147998497186656
0.000151196615620295
0.000154343640661515
0.000157370141046947
0.00016029854360243
0.000163113904777449
0.000165774160920343
0.00016830668339879
0.000170647191936648
0.000172817070630934
0.000174800599741432
0.000176576296402123
0.00017814570825423
0.000179499634274894
0.000180627681125384
0.0001815437145504
0.000182226519786541
0.000182699545804663
0.000182950549318142
0.000183033891799087
0.000183050312140384
0.000183051152374504
0.000183054911792207
0.000183050500920534
0.000183055232485075
0.000183050989328192
0.000183053716764455
0.000183052214453211
0.000183054066041853
0.000183050565900999
0.000183056382151872
0.000183049748586088
0.000183056108957326
0.000183049761351461
0.00018305420059252
0.000183053313761734
0.000183050366953014
0.0001830563237616
0.000183049439576132
0.000183056612708113
0.00018305026302183
0.000183054084033017
0.000183052282104554
0.000183053322670074
0.000183053194274243
0.000183052996255599
0.00018305115697628
0.000183053813790329
0.00018305306494907
0.000183052934554385
0.000183054087848556
0.000183051205229997
0.000183052709004635