/*--------------------------------*- C++ -*----------------------------------*\
| =========                 |                                                 |
| \\      /  F ield         | OpenFOAM: The Open Source CFD Toolbox           |
|  \\    /   O peration     | Version:  v2006                                 |
|   \\  /    A nd           | Website:  www.openfoam.com                      |
|    \\/     M anipulation  |                                                 |
\*---------------------------------------------------------------------------*/
FoamFile
{
    version     2.0;
    format      ascii;
    class       volVectorField;
    location    "7000";
    object      wallShearStress;
}
// * * * * * * * * * * * * * * * * * * * * * * * * * * * * * * * * * * * * * //

dimensions      [0 2 -2 0 0 0 0];


internalField   uniform (0 0 0);

boundaryField
{
    bottomWall
    {
        type            calculated;
        value           nonuniform List<vector> 
140
(
(-0.00213440899709293 -1.66574358317387e-07 0)
(-0.00213376484115754 -4.14797153723974e-07 0)
(-0.00212428312307192 -4.70619925883154e-07 0)
(-0.00211415874995299 -4.15063017842441e-07 0)
(-0.00210386033596336 -4.55443421809727e-07 0)
(-0.00209194755302782 -5.0729326135028e-07 0)
(-0.00207847283857187 -5.48062233303156e-07 0)
(-0.00206342877948749 -5.94245366547782e-07 1.53019847982275e-23)
(-0.00204655853517142 -6.47290480762807e-07 -1.53200393042803e-23)
(-0.0020275973342347 -7.06166836784352e-07 0)
(-0.00200624781124251 -7.72330101827946e-07 0)
(-0.00198214526129189 -8.47293305117874e-07 0)
(-0.00195485442133105 -9.32620507102421e-07 0)
(-0.00192385679388168 -1.0304104956023e-06 0)
(-0.00188852587258438 -1.14348862669452e-06 0)
(-0.00184810173640272 -1.27568353261804e-06 0)
(-0.00180163807820329 -1.43251473311517e-06 0)
(-0.00174796348245792 -1.62238756806881e-06 0)
(-0.00168549096104171 -1.85768139281214e-06 0)
(-0.00161236654499086 -2.17337003508471e-06 0)
(-0.00152465408948381 -2.6313653483162e-06 -3.98612500528139e-23)
(-0.00141909582278636 -3.82081460712648e-06 -6.13939335194844e-22)
(-0.00131958757458152 -7.0284993084475e-06 1.37399579756687e-21)
(-0.00124647114279816 -1.30743816387169e-05 -3.67341984631965e-40)
(-0.00120006650048437 -2.19736865303294e-05 1.1964910332795e-20)
(-0.00118004234971963 -3.37550489651388e-05 1.26482763950717e-20)
(-0.00118395228250552 -4.88446116416237e-05 -2.59555904643906e-20)
(-0.00121821096585513 -6.82918720699817e-05 2.65448649162221e-20)
(-0.00127397811571744 -9.27376199142744e-05 -2.11966712999104e-24)
(-0.00135741625233943 -0.000123947922399429 1.0656781293968e-22)
(-0.00146919254318194 -0.0001634830143019 -3.58158435016166e-39)
(-0.00160083681053441 -0.000212145524318108 -9.92989142207378e-23)
(-0.00175973228775734 -0.000272614877442362 -1.08821805353718e-19)
(-0.00194930060419491 -0.000347465301244087 1.98248830552489e-23)
(-0.00216940913225386 -0.00043842120110182 -1.02805302635774e-19)
(-0.00241040063681974 -0.000545863873516638 -9.76728028211964e-20)
(-0.00270266522484976 -0.000678517688327672 1.82211723331443e-19)
(-0.00302194193523177 -0.000831434396113056 -1.64812173842921e-19)
(-0.00339984699422796 -0.00101708011918069 1.43385673344565e-19)
(-0.0038270693944563 -0.00123152089988415 -2.45398401693226e-22)
(-0.00436767384174129 -0.0014991140411776 -1.45449078550206e-23)
(-0.00497751143226835 -0.00179208418453775 1.45952084090771e-23)
(-0.00566234281343179 -0.00211604475736621 -3.03624203817141e-24)
(-0.00643645842155403 -0.00245169150312123 3.02542273099103e-24)
(-0.00724118099024391 -0.00276507684623173 7.3468396926393e-40)
(-0.00805084551609923 -0.00303072379214139 5.51578665016077e-22)
(-0.00886592635464209 -0.00323239716206558 5.10386182843155e-23)
(-0.00962199368414526 -0.00333154602898609 4.78911483139051e-19)
(-0.0102723928608801 -0.00331255903529277 -1.61800036526015e-22)
(-0.0107356681329697 -0.00314819786942013 3.55344373451526e-22)
(-0.0109156527526997 -0.00284205539740069 -1.94119726116645e-22)
(-0.0108459371708265 -0.00244038176497637 -4.83833374898908e-19)
(-0.0104521489894243 -0.00196345116726872 -5.33863261263421e-19)
(-0.00981087640630826 -0.00148740547635775 -5.72137349766241e-19)
(-0.00907138461821875 -0.00105844662375974 2.31641200392132e-22)
(-0.00837314829969746 -0.000706317865905407 0)
(-0.00774831740075072 -0.000416242361175793 -1.56572043899228e-19)
(-0.00712759644179355 -0.000176699778285958 3.06951527512397e-22)
(-0.00653053661923588 1.69588644101991e-05 9.74741857045859e-21)
(-0.00596341221943259 0.000171103919747608 7.68834639338328e-20)
(-0.00540668115259609 0.000290321110499844 -1.50635525248613e-19)
(-0.00485718564476143 0.000377555686919314 1.45213058212731e-22)
(-0.00432720078087676 0.000436632491337189 -4.70197740328915e-38)
(-0.00379256187745999 0.000468878834586648 2.71362281953794e-19)
(-0.00328544007464378 0.00047869017955818 -5.17874529354015e-19)
(-0.00278844207921185 0.000468347996648734 -4.92279138687114e-19)
(-0.00229048214275786 0.000438137164817059 -4.651320988909e-19)
(-0.00179596935778441 0.00038965982950239 4.37675069568646e-19)
(-0.00135972238900861 0.000333967303155562 -4.0932943162715e-19)
(-0.000935064037483975 0.000266162275690731 3.81928041156813e-19)
(-0.000554313520127429 0.000195913356462057 3.53909336564822e-19)
(-0.00021476008190582 0.000123309026972677 3.28211781735482e-19)
(5.34428685507156e-05 6.0893441159085e-05 9.4039548065783e-38)
(0.000266477013913005 4.41643543889364e-06 1.2883892479952e-22)
(0.000440977335232564 -4.32953073813854e-05 -1.28332329079288e-22)
(0.000563281225390529 -8.06587877093631e-05 -4.5835819935033e-19)
(0.000646224488536969 -0.000106950349139928 -4.17484191489863e-19)
(0.00070051396132015 -0.000126960783600746 -1.88079096131566e-37)
(0.000747074933548995 -0.000142229700356743 0)
(0.000752707294133427 -0.000145962888888221 3.16483583964622e-19)
(0.000757761477602441 -0.000149482329997453 1.29440736523388e-23)
(0.000752694002270356 -0.000147809082662178 2.62606805888418e-19)
(0.000735476350642023 -0.000142824555203666 0)
(0.000711241902736796 -0.000134924679478879 0)
(0.000685086368446658 -0.000126514929229823 -9.02892538103197e-23)
(0.000649317005321643 -0.000114473164973308 -1.74790740321618e-19)
(0.000606327363057415 -0.000102035628009767 -7.82054653100061e-20)
(0.000565658357143342 -8.96254776273778e-05 1.05147561188289e-22)
(0.000511427260348464 -7.49730607430547e-05 6.078406907039e-20)
(0.000458387739055416 -6.1750403984188e-05 -5.87747175411144e-39)
(0.000395145801611207 -4.70249633168381e-05 4.52202161241511e-20)
(0.000324432153053763 -3.32015529807022e-05 5.87747175411144e-39)
(0.000250075294971072 -2.01223658004264e-05 3.11145190254147e-20)
(0.000165246619752878 -7.67597389428578e-06 2.72875797089833e-23)
(7.3256033390422e-05 3.36801710131373e-06 -9.23104851470564e-21)
(-2.85718814811666e-05 1.28924710730853e-05 -2.93873587705572e-39)
(-0.000141030343730619 2.04546928699381e-05 -4.52814449938824e-24)
(-0.000261387620367098 2.54931084611801e-05 4.47430141837394e-24)
(-0.000394197835844781 2.80271567671343e-05 7.17464813734306e-43)
(-0.000539984302196531 2.75406056853923e-05 7.07447079474635e-24)
(-0.000698404027293543 2.38672834797478e-05 -1.65146037954507e-23)
(-0.000877844370176979 1.69680163942869e-05 1.35102479806481e-21)
(-0.0010848406501746 8.95489677020714e-06 3.83588837879643e-22)
(-0.0012636063154384 3.72267605257819e-06 -1.05196948177651e-22)
(-0.00139168430498167 2.13941532470767e-06 -1.14255061133477e-23)
(-0.00149356895748821 1.74093562336659e-06 -2.52023938775044e-24)
(-0.00157935719824451 1.53889381771545e-06 1.11658135151219e-23)
(-0.00165233315602281 1.37935266424928e-06 -2.01739501454961e-26)
(-0.00171504784320654 1.23231961367417e-06 -1.1133430299556e-36)
(-0.0017690802138477 1.09514477646215e-06 -0)
(-0.00181566698015808 9.6865615328469e-07 0)
(-0.00185586444286981 8.53237253300025e-07 0)
(-0.00189057427477484 7.49082033791827e-07 0)
(-0.00192057749790804 6.55899592367952e-07 0)
(-0.00194654937015124 5.73180271705554e-07 0)
(-0.00196907206505944 5.00178399275684e-07 0)
(-0.00198864548515788 4.36098221589685e-07 0)
(-0.0020056986473401 3.80157051889835e-07 0)
(-0.00202059894002896 3.31518952803362e-07 0)
(-0.00203366092267573 2.89503865925041e-07 -0)
(-0.00204515430917621 2.5335215720687e-07 1.97626707442491e-24)
(-0.00205531037200453 2.22477433672435e-07 -1.97517098296794e-24)
(-0.00206432711226857 1.96258528924526e-07 -0)
(-0.00207237679968626 1.74236469009284e-07 0)
(-0.00207960417998095 1.55847763854544e-07 0)
(-0.00208614332003479 1.40921321883794e-07 -1.31622467865535e-24)
(-0.00209209410403861 1.28647293760421e-07 1.31577085065373e-24)
(-0.00209757964340608 1.19739965239194e-07 0)
(-0.00210263847761426 1.12006682971209e-07 -0)
(-0.00210745299598444 1.09391486182055e-07 4.6059663626193e-25)
(-0.00211189040133413 1.03686631860996e-07 -4.36454061296619e-26)
(-0.00211645475453134 1.11759676698993e-07 -4.16713777812794e-25)
(-0.00212033945186526 1.00084149641955e-07 -3.32577567891667e-25)
(-0.00212546161038946 1.38928708665122e-07 6.21987209968689e-25)
(-0.00212815199600518 8.81324135337789e-08 -4.14499866168318e-25)
(-0.00213639655249353 2.4230476384416e-07 1.24989918634809e-25)
(-0.00213426180871065 4.76613540091467e-09 0)
(-0.0021551669223737 6.59592443703142e-07 0)
(-0.00213500469479037 -8.17740825819485e-07 0)
(-0.00217935522910358 3.06848466027145e-06 0)
)
;
    }
    topWall
    {
        type            calculated;
        value           nonuniform List<vector> 
140
(
(-0.00216774093980304 -8.70429059294818e-08 0)
(-0.00217656035651396 -1.28579768588673e-07 0)
(-0.00218184896517371 -1.58293373559057e-07 0)
(-0.0021902433368701 -2.02665497382047e-07 0)
(-0.00219991061818848 -2.20172693639048e-07 0)
(-0.00221054505069448 -2.43764313373969e-07 0)
(-0.00222242015770725 -2.69174685297814e-07 0)
(-0.00223555147493931 -2.95968509897594e-07 0)
(-0.00225004607763647 -3.25781025772891e-07 0)
(-0.0022660500475714 -3.58857595792668e-07 0)
(-0.00228372053805596 -3.95566053433169e-07 0)
(-0.00230323582832029 -4.3631385901784e-07 0)
(-0.00232479257469906 -4.81455611511535e-07 0)
(-0.00234860468966292 -5.31347176367071e-07 0)
(-0.00237490347370306 -5.86341972279563e-07 0)
(-0.0024039372965747 -6.46785594239093e-07 0)
(-0.00243597118210148 -7.13012599476409e-07 0)
(-0.00247128617948229 -7.8533977196319e-07 0)
(-0.00251017839688019 -8.64057851086973e-07 0)
(-0.00255295764141192 -9.49421853511366e-07 0)
(-0.00259994559471502 -1.04163974755658e-06 0)
(-0.00265147345477263 -1.14085951211055e-06 0)
(-0.00270787897065579 -1.24715426422305e-06 0)
(-0.00276950278542366 -1.36050522815577e-06 0)
(-0.00283668399312232 -1.48078206895871e-06 0)
(-0.00290975478740134 -1.60771990510031e-06 0)
(-0.00298903405951398 -1.74089247046079e-06 0)
(-0.00307481976550983 -1.87968028479894e-06 0)
(-0.00316737984226545 -2.02323317289303e-06 0)
(-0.00326694141787198 -2.17042636495226e-06 0)
(-0.00337367803618119 -2.31981019857787e-06 0)
(-0.00348769462426603 -2.46955389079709e-06 0)
(-0.0036090099435675 -2.61738474115831e-06 0)
(-0.00373753636587435 -2.76052614333828e-06 0)
(-0.00387305692447907 -2.89563838440172e-06 0)
(-0.00401519984404996 -3.0187701993941e-06 0)
(-0.0041634110166293 -3.12532905087002e-06 0)
(-0.00431692536840219 -3.210084170377e-06 0)
(-0.00447473850774626 -3.26721386250089e-06 0)
(-0.00463558073135867 -3.290416643923e-06 0)
(-0.00479789606965533 -3.27309762676051e-06 0)
(-0.00495982971293368 -3.20864707175014e-06 0)
(-0.00511922765327173 -3.0908138460897e-06 0)
(-0.00527365255835922 -2.91417238539805e-06 0)
(-0.00542041969995584 -2.67466239531917e-06 0)
(-0.00555665581812448 -2.37016476589379e-06 0)
(-0.0056793823460114 -2.0010580397887e-06 0)
(-0.00578562181243592 -1.57068204181311e-06 0)
(-0.00587252398518658 -1.08562679514126e-06 0)
(-0.00593750297160147 -5.55759227519701e-07 0)
(-0.00597837788220078 5.83104440684246e-09 0)
(-0.00599351752499048 5.83700686292101e-07 0)
(-0.0059818766482296 1.15566705331277e-06 0)
(-0.00594358282831064 1.70467257373449e-06 0)
(-0.00587917716745405 2.22113782224046e-06 0)
(-0.00578976160044424 2.69144230155348e-06 0)
(-0.00567702606485259 3.10371050713758e-06 0)
(-0.0055431938486721 3.44947465019781e-06 0)
(-0.00539088892656151 3.72421260153255e-06 0)
(-0.0052229946659315 3.92673845092239e-06 0)
(-0.005042523632358 4.05878509658633e-06 0)
(-0.0048525125061864 4.1242271224092e-06 0)
(-0.00465592334276504 4.12905959295832e-06 0)
(-0.0044555584990075 4.08034490969738e-06 0)
(-0.00425400985909314 3.98565030025867e-06 0)
(-0.0040536221007655 3.85275386987683e-06 0)
(-0.00385646808036665 3.68925043940498e-06 0)
(-0.0036643380552449 3.50229358531975e-06 0)
(-0.00347873792313094 3.2984498730049e-06 0)
(-0.00330089416371396 3.08360488303972e-06 0)
(-0.00313176466519879 2.86291252851245e-06 0)
(-0.00297205447666681 2.64078227851143e-06 0)
(-0.00282223575410703 2.42088839799971e-06 0)
(-0.00268257117230133 2.20619958659294e-06 0)
(-0.00255313987897576 1.99902259457447e-06 0)
(-0.00243386495034087 1.8010590299189e-06 0)
(-0.00232454116740044 1.61347204255595e-06 0)
(-0.00222486199988972 1.43695954248707e-06 0)
(-0.00213444480296195 1.27183042416205e-06 0)
(-0.00205285352554497 1.1180792578991e-06 0)
(-0.00197961841678414 9.75458588924258e-07 0)
(-0.00191425251171666 8.43543305839314e-07 0)
(-0.00185626493795533 7.21787621268234e-07 0)
(-0.00180517119105783 6.09573528525235e-07 0)
(-0.00176050066157272 5.06250375472759e-07 0)
(-0.00172180179113345 4.11165580639374e-07 0)
(-0.00168864524251369 3.23688398779984e-07 0)
(-0.0016606254280003 2.43227076158222e-07 0)
(-0.00163736078229701 1.69239745893742e-07 0)
(-0.00161849308476774 1.01241482815047e-07 0)
(-0.00160368610096324 3.88069183533238e-08 0)
(-0.0015926237974094 -1.84302111470801e-08 0)
(-0.00158500833932426 -7.07792801818451e-08 0)
(-0.00158055792310575 -1.18502900539757e-07 0)
(-0.00157900543242056 -1.61818736310818e-07 0)
(-0.00158009482343629 -2.00868714520501e-07 0)
(-0.00158357836567395 -2.36014812539941e-07 0)
(-0.00158924210800302 -2.67478683512319e-07 0)
(-0.00159686752922583 -2.9514327167421e-07 0)
(-0.00160624404066937 -3.19054238710672e-07 0)
(-0.00161715579457834 -3.39232979488264e-07 0)
(-0.00162938745450256 -3.55711046914122e-07 0)
(-0.00164273381321706 -3.68677343793704e-07 0)
(-0.0016570037867452 -3.78382115927873e-07 0)
(-0.00167201989833536 -3.85059488233697e-07 0)
(-0.00168761717252108 -3.88936230836592e-07 0)
(-0.00170364305532993 -3.902446146735e-07 0)
(-0.00171995759993372 -3.89222568277461e-07 0)
(-0.00173643361713079 -3.86112251498655e-07 0)
(-0.00175295668558617 -3.81155203848235e-07 0)
(-0.00176942497213175 -3.74588961305423e-07 0)
(-0.00178574889948462 -3.66643023483768e-07 0)
(-0.00180185064281413 -3.57535752762422e-07 0)
(-0.00181766351237121 -3.47472105699689e-07 0)
(-0.00183313123380167 -3.36641580772018e-07 0)
(-0.00184820715574075 -3.25217033712633e-07 0)
(-0.00186285340307385 -3.13353924409692e-07 0)
(-0.00187704002821081 -3.01190290213526e-07 0)
(-0.00189074412238326 -2.88846680059159e-07 0)
(-0.00190394902280596 -2.76427380544238e-07 0)
(-0.00191664340029772 -2.64020093775211e-07 0)
(-0.00192882069364271 -2.51699387109913e-07 0)
(-0.00194047800012336 -2.39523202069314e-07 0)
(-0.0019516162012533 -2.27543507583455e-07 0)
(-0.00196223783384097 -2.15789404721642e-07 0)
(-0.00197234961146647 -2.04304554422237e-07 0)
(-0.00198195593744823 -1.93078479979825e-07 0)
(-0.00199107056150746 -1.82185715202704e-07 0)
(-0.00199969220072275 -1.71520631223691e-07 0)
(-0.00200785302857577 -1.61320335978975e-07 0)
(-0.00201551955504011 -1.51161374515646e-07 0)
(-0.0020227970623443 -1.41915019538159e-07 0)
(-0.00202950395888709 -1.32013954528317e-07 0)
(-0.00203607714076884 -1.24638698985086e-07 0)
(-0.00204162401768501 -1.14156769060674e-07 0)
(-0.00204821487128404 -1.12059429494697e-07 0)
(-0.0020513166958514 -9.55560672923437e-08 0)
(-0.00206128526632365 -1.27566326261703e-07 0)
(-0.00205643347925763 5.836991272277e-08 0)
(-0.0020721194367567 -4.18485040727796e-07 0)
)
;
    }
    inlet
    {
        type            calculated;
        value           uniform (0 0 0);
    }
    outlet
    {
        type            calculated;
        value           uniform (0 0 0);
    }
    frontAndBack
    {
        type            empty;
    }
}


// ************************************************************************* //
