/*--------------------------------*- C++ -*----------------------------------*\
| =========                 |                                                 |
| \\      /  F ield         | OpenFOAM: The Open Source CFD Toolbox           |
|  \\    /   O peration     | Version:  v2006                                 |
|   \\  /    A nd           | Website:  www.openfoam.com                      |
|    \\/     M anipulation  |                                                 |
\*---------------------------------------------------------------------------*/
FoamFile
{
    version     2.0;
    format      ascii;
    class       volScalarField;
    location    "0";
    object      k;
}
// * * * * * * * * * * * * * * * * * * * * * * * * * * * * * * * * * * * * * //

dimensions      [0 2 -2 0 0 0 0];


internalField   nonuniform List<scalar> 
14000
(
0.000263595163761844
0.000252253821354005
0.000232603168168316
0.000209998539840998
0.000185486942457383
0.000164085464789006
0.000148749728196885
0.000138639450134014
0.000133020012276044
0.000131154068098604
0.000133647980120492
0.000139362704787865
0.000149703182349048
0.000164772757476532
0.000183736281791486
0.000208009025709882
0.000238936877380743
0.000276777223541485
0.000319625628177085
0.000374733749544813
0.000436571612448766
0.000512811081816852
0.000601144327421479
0.000719902051284766
0.000857803639965224
0.00101393134919135
0.00119382541376373
0.0013757505068321
0.00154966240359936
0.00171343926742328
0.00184806400087749
0.00193847907645653
0.00196576360593254
0.00190340829349313
0.00177804540702339
0.0015821432035245
0.00135023081827206
0.00113081218003304
0.000953422311117233
0.000818709012169843
0.000704114052394146
0.00060745306255537
0.000526258460979848
0.00045538942687314
0.000390665907685247
0.000334655757869367
0.000281844861038037
0.000235434525389485
0.000193885705659601
0.000155196007403025
0.000120097655074427
9.21680924056081e-05
6.83593669786341e-05
4.9294034089034e-05
3.4792778710638e-05
2.51180809750031e-05
1.89682306853263e-05
2.08468164071105e-05
2.33931481080378e-05
2.55236181775665e-05
2.71238262322535e-05
2.90210211543314e-05
2.99308620302026e-05
3.02549619564843e-05
3.07396115483868e-05
3.08225801887608e-05
3.01341426212754e-05
2.97516071916949e-05
2.89333206280656e-05
2.77059874420889e-05
2.65352243803105e-05
2.50622510698981e-05
2.36163772132637e-05
2.18986740777312e-05
2.02015963871164e-05
1.84507626651677e-05
1.6741080632656e-05
1.88891566099178e-05
2.37345764472119e-05
3.01266024909261e-05
3.80746255410872e-05
4.83883751370848e-05
6.13538659665917e-05
7.80643815485196e-05
9.85022407998602e-05
0.000127914121904133
0.000161760468139994
0.000183971572011512
0.000199240211304906
0.000213583769639436
0.000225956790273863
0.00023650064977923
0.000245767083204784
0.000253677774735215
0.000260451767103476
0.000266215382152257
0.000271064573218019
0.000275288328640892
0.000278787479977588
0.000281697656298714
0.000284233947348163
0.000286266220765001
0.000288004893649642
0.000289524069559969
0.000290751064102307
0.0002917437255288
0.000292584107303911
0.00029331776235766
0.000293899686783194
0.000294454099173364
0.000294769585582589
0.000295108275516256
0.00029540664167494
0.000295632924440893
0.000295794365566926
0.000295874614332462
0.000296112271597799
0.000296203479855154
0.000296222375754751
0.00029629056910423
0.000296361524910907
0.000296376692141501
0.000296490804707427
0.000296370948745729
0.000296514806254662
0.000296498976118225
0.00029647471975279
0.000296559127328773
0.000296582078492256
0.000296617201547502
0.00029662166504024
0.000296779794037387
0.000296826145922756
0.000296829427672029
0.000296944992776864
0.000297333405044989
0.000297083790593575
0.000298342756736809
0.00029749981130667
0.000298310174415572
0.000624998928972655
0.000609787686271013
0.00059352395088864
0.000576006955138672
0.000558472746107969
0.000546588709726458
0.000539374503474753
0.00053451091154114
0.000530574590394529
0.000527090245081885
0.000524660083905657
0.000522780481241139
0.000525674631876649
0.000528975638363642
0.000532823894233501
0.00053824047087002
0.000545103929194953
0.000551545514959776
0.000557666840497863
0.000568469166087536
0.000576314665506217
0.000590849042558159
0.000605854550071837
0.000634380345561188
0.000660994661999052
0.000696422255583204
0.000736730785999571
0.000778846558005951
0.000823524530459685
0.000870832672149086
0.000916100672292342
0.000958167762512208
0.000991507052470386
0.00100926011136317
0.0010157949811522
0.00100556782699054
0.000992540435631249
0.000987885623132168
0.00100272008825002
0.00102868802472128
0.00105606680513071
0.00108246676473992
0.00110270694203116
0.00111352302451001
0.00111356794851138
0.00110467229877186
0.00108296263566741
0.00105645367183013
0.00101832266474025
0.000972714987568803
0.000921308222932681
0.0008695095566651
0.000809171981386026
0.000750079273573735
0.000690289757410658
0.000637787682503334
0.000583719063906107
0.00053786565240145
0.000496895144892105
0.000463554554480863
0.000430838563872534
0.000406555072032553
0.000389644566455809
0.00037385465948441
0.000362623005665223
0.000358529561469251
0.000356021440693037
0.000356324937386577
0.000366089315388103
0.000373692442812123
0.000386566053268556
0.000400362822323004
0.000418875884488925
0.00043980418075881
0.000462244748750011
0.000488322104893255
0.000515274291966955
0.000546661637070849
0.000580067597181974
0.000616830657526506
0.000653539658060198
0.000694941102746732
0.000737795306934661
0.000785024219487729
0.000835673672882398
0.000903516554900426
0.000943555181006206
0.000940595901064368
0.000935072383797327
0.000927799352506925
0.000920843368781221
0.000913867943337213
0.000907340827790146
0.000900434782221935
0.000893817227327978
0.000887075500170075
0.000880591660644679
0.000874432835545072
0.000868247366536223
0.000862432877275337
0.000856900167894973
0.000851436581323246
0.000846439982248311
0.000841634875180749
0.000836994102197701
0.000832560970857882
0.000828384017699456
0.000824419369292654
0.000820617018986527
0.000817051927568776
0.000813395276657544
0.000810207288895853
0.000806989062142597
0.000803980980863188
0.000800986218588767
0.000798182225480136
0.000795694072519965
0.000792974659417014
0.000790506079387968
0.000788140967700929
0.000785871097192522
0.000783673940953646
0.000781630859419612
0.00077938121380849
0.000777738701680712
0.00077558941749531
0.000773910860636889
0.000772188040291929
0.000770518345924337
0.000768915816763496
0.000767373512081882
0.000766075698370333
0.000764525901997835
0.000763173965984141
0.000762073774343205
0.000760995792656426
0.000759660500725792
0.000759899495439965
0.000757063489069242
0.00075768142845724
0.00286753063318443
0.0028493549576444
0.00283266842856767
0.00281601663970821
0.00280060979033635
0.00279280784326746
0.00278773289215997
0.0027798394854937
0.00276594675625657
0.00274621329082437
0.00272205612897718
0.00269819668326896
0.00268543251848667
0.00267352292974372
0.00266133966853229
0.00265094680986085
0.00264218630033393
0.00262973737922361
0.0026149468814787
0.00260672025462183
0.00259030398805827
0.00258374661146781
0.002576097651216
0.00259028782360317
0.00259266068135397
0.00260664812675092
0.00262290704134395
0.00264033693735999
0.00266894339314164
0.00271473681408067
0.00277579898758883
0.00286329314486844
0.00298437933498376
0.00314759806321532
0.00335881552918281
0.00361057419225755
0.00391968050105014
0.0042770457959749
0.00467320573493489
0.00506563946007717
0.00542998753845253
0.00575389420890912
0.00601752313197124
0.00620993222054443
0.00633142386144458
0.00638415611580279
0.00636580368830993
0.00629901650051248
0.00616772786634336
0.00598649578888483
0.00576553497091497
0.00551724400545151
0.00522077731980904
0.00490793340669378
0.00457950889635053
0.00426663492188818
0.00394394118617678
0.0036495519573082
0.00338148583703363
0.0031533901041082
0.00293673379538308
0.00276624054120813
0.00263940004741537
0.00252711107754779
0.00244214741570351
0.00239791264465499
0.00236721952191445
0.00235514809680839
0.00239246681243383
0.00242351990364364
0.00247896152882533
0.00254017715256702
0.00262215838615927
0.00271457849331737
0.00281260705822889
0.00292284418981289
0.00303519226539267
0.00315870776587696
0.00328608373145592
0.00341999087713451
0.00355007368673187
0.0036881547882145
0.00382634704375928
0.00396900181489419
0.00411516102729139
0.00429403534696449
0.00439713889216459
0.00438338512436662
0.00434296970603075
0.00429282748664514
0.00424181768127996
0.00419142782338722
0.00414315860321561
0.00409581626625088
0.00405072332057972
0.00400729197156179
0.00396625566229673
0.0039277445473402
0.00389106275367937
0.0038568245486927
0.00382478907795289
0.00379448564646652
0.00376647321302991
0.0037402005543055
0.00371546308301018
0.00369223072002539
0.00367050957034447
0.00365011782093697
0.00363091962550384
0.00361288680085844
0.00359547336219694
0.0035794800727451
0.00356410915761041
0.00354962917947242
0.0035356824664851
0.0035225585074245
0.00351038177000601
0.00349825581322507
0.00348686993852806
0.00347603572178858
0.00346566653536922
0.00345576280332297
0.00344632000295688
0.00343689054235734
0.0034286084204785
0.00341982762258619
0.00341195434868832
0.00340426482156034
0.00339684968276452
0.00338970555724686
0.00338287064467789
0.00337656816292091
0.0033700384400639
0.0033639195191076
0.00335847638639189
0.00335299071646852
0.00334763299339471
0.00334418115152951
0.00333753098166208
0.00333297478741008
0.00449071674759292
0.00448027732342496
0.00447416898242096
0.00447581889723779
0.00448903465816018
0.00451823952586834
0.00455648789378137
0.00459394108999534
0.00462247901985422
0.00463887173641763
0.00464161951633564
0.00463272401029254
0.00462325972119564
0.00460914567204796
0.00459063206944432
0.00457022643434908
0.00454894157687936
0.00452270582803479
0.00449381740301281
0.00446913847315202
0.004438656676847
0.00441558718098833
0.00439336359424012
0.00438857161008563
0.00437304244400615
0.00436285142313606
0.00434981271895069
0.00433246898955428
0.00432104297833935
0.00432422974273939
0.00434643921990032
0.00439899000136592
0.00449902383120636
0.00467316867493202
0.00494551100384993
0.00533491018029279
0.00587455860642391
0.00656758693161334
0.00738739298871745
0.00825783524451383
0.00911575221847378
0.00991591597145914
0.0106152900587354
0.0111867313042531
0.0116276134254114
0.0119357602360088
0.0121161411180488
0.0121936720144588
0.0121565989932588
0.0120244367767598
0.0118194279786249
0.0115486185167931
0.0111902279747799
0.0107780218696074
0.0103181255155983
0.00984062634832533
0.00931812909631644
0.00880433642779574
0.008308620643961
0.00785402398031573
0.0074097312361528
0.00703497879875525
0.00672966930710864
0.00645386482546252
0.00622884927103618
0.00607623499614101
0.00595250995311337
0.00586530395173038
0.00585084341758429
0.00584264217448095
0.00586990176337745
0.00591141567591673
0.00598311663700187
0.00607178383204374
0.00617037114112245
0.00628399920783366
0.00640195534503953
0.00653200988606866
0.00666739247923564
0.00680888380724234
0.00694594035509227
0.00708889632091348
0.00723148362315705
0.00737557484526218
0.00752119251394438
0.00769620968654458
0.00779077968134398
0.00774883464919228
0.00765272859961393
0.00753286027644963
0.00740553427530774
0.0072767773685087
0.00715047543038456
0.00702701430317827
0.00690832171838436
0.00679446144855822
0.006686377457519
0.00658440916387482
0.00648800166492139
0.00639761405064046
0.00631299511570341
0.00623360626168726
0.00615972991199362
0.00609076990106152
0.00602632060272462
0.00596613629735848
0.00591003538742033
0.00585767675163805
0.00580876764530379
0.00576306875143926
0.00571999832641059
0.00567997732250083
0.00564230675920123
0.00560699831622133
0.00557365190433644
0.00554237460833446
0.00551314593216419
0.00548521037779565
0.00545891800978736
0.00543409943291443
0.00541059780420232
0.00538836012724275
0.00536726463701139
0.00534699271888569
0.00532821989405075
0.00530982894719795
0.00529265739421116
0.00527622963508272
0.00526054150126432
0.00524553759906886
0.00523123999280828
0.00521774631523902
0.0052045219983301
0.00519193005839661
0.0051802160120991
0.00516875263078116
0.00515780255245101
0.00514815848028693
0.00513756009114696
0.00512301228043493
0.00526048084856903
0.00525615098429355
0.00525386857415329
0.00525996459750675
0.00528119166602279
0.00532366140607013
0.00538411771552859
0.0054537384516055
0.00552223377913433
0.00558228927921402
0.00562840091821928
0.00565791554944511
0.00567797608018506
0.00568733356553729
0.00568701560851276
0.00567950003839051
0.00566650789483485
0.00564567842672128
0.00561945671704879
0.00559315219148658
0.00556075826515742
0.00553159458624391
0.00550211268779721
0.00548394073122117
0.00545544585242052
0.00542555395933838
0.00538627968915224
0.00533404759873261
0.00527498891977928
0.00521578337593393
0.00516154383553436
0.00512242443134718
0.00511199076822797
0.00516134110333929
0.00530375744627933
0.00557810881592839
0.00603300571811111
0.00670164641942791
0.00757815896733184
0.00860641844027343
0.0097155932475709
0.0108334807046271
0.0118914482103407
0.0128356368095709
0.0136421356615709
0.0142934707107736
0.0147915001862028
0.0151509995922265
0.0153686985067417
0.0154604951370796
0.0154534369083586
0.0153530556854767
0.0151436685386955
0.0148480441262706
0.014476263089762
0.0140487609181313
0.0135416639550739
0.0130015200707326
0.0124481620229745
0.0119082247538641
0.0113599281965828
0.0108687575340459
0.0104459905382365
0.0100550278105417
0.00971865980865617
0.00946537077116303
0.00925127239989897
0.00908211680102598
0.00899341365430289
0.00892580927035635
0.00889945531634811
0.00889593565369926
0.00892844264359333
0.00898474638885017
0.00905641968552392
0.00914645412398982
0.00924489995895308
0.0093572551760284
0.00947787006918077
0.00960595602987362
0.00973147841400183
0.00986227245980215
0.00999363614729367
0.0101255629314888
0.0102579716057789
0.0104157274101526
0.01049687938659
0.0104376382581697
0.0103054789326976
0.0101355894551076
0.00994901790447404
0.00975582229885592
0.0095623899828411
0.00937094805335986
0.00918430245892751
0.00900334721751172
0.00882944699118001
0.00866334824586376
0.00850485796170114
0.00835452323031043
0.00821227468885807
0.00807769631105834
0.00795102107092845
0.00783174694422304
0.00771945107848409
0.00761381855603623
0.0075145942143198
0.00742138583858717
0.00733382386781886
0.00725157642585106
0.00717401818493612
0.00710133820920276
0.00703287528441623
0.00696848769660302
0.00690772455531568
0.00685053533777875
0.00679680674807077
0.00674583963267547
0.00669775173664984
0.00665233053680205
0.00660936213203295
0.00656871751084114
0.0065302107568187
0.00649352168186891
0.00645906305612
0.00642597760391486
0.00639476222389864
0.00636504371216202
0.00633675026318119
0.00630977802720848
0.00628409534196898
0.00625972595911713
0.00623624700410824
0.00621384427650943
0.00619267484037958
0.00617227533158796
0.00615277030017482
0.00613450196646318
0.0061174243452487
0.00608965713703546
0.00565253722916865
0.00565159952414707
0.00565052416213925
0.00565541910591235
0.00567400067568773
0.00571420930037347
0.00577721192558535
0.00585824569217281
0.00594877640686392
0.00604032468381088
0.00612476341061093
0.00619584307792833
0.00625430475274004
0.00629882488389983
0.0063298802818954
0.00634931651440805
0.00635880644516368
0.00635703586000175
0.00634645061516973
0.00633132065897125
0.0063081617123774
0.0062842065948024
0.00625769762449337
0.00623755302543639
0.00620655919962802
0.00617005027003212
0.00612001322242
0.00605122187440418
0.00596623256243551
0.00586855269103851
0.00576068385465103
0.0056494148559539
0.00554114859793443
0.00545810865884949
0.00543067575679611
0.00549804813509782
0.0057155852145064
0.00613842833702625
0.00679571631806725
0.00767758396936354
0.00874560870185874
0.00993615279792616
0.0111726809387058
0.012378831012796
0.0135005487388815
0.0144935939881846
0.0153418772077966
0.0160413423858133
0.0165880400361201
0.0169905699224014
0.0172734346273696
0.0174426220224395
0.0174878960193405
0.0174223062864787
0.0172555231239103
0.0170010978657582
0.0166356051772871
0.0161932513507615
0.0156974086314951
0.0151770676738448
0.0146177058303245
0.0140859815059266
0.0136071799497796
0.0131518274848997
0.0127430389002053
0.0124169911085116
0.0121350312703788
0.0119000798852163
0.0117477708524034
0.011627282970251
0.0115519237739425
0.0115057806966647
0.0114997396173988
0.0115230147971632
0.0115662535707652
0.0116307917125087
0.0117072199711619
0.0117992663010868
0.0119019703483946
0.0120135288395195
0.0121242545992843
0.0122399978649549
0.0123569543019476
0.0124738905948538
0.0125903012313122
0.0127279858723541
0.0127918934359338
0.0127156387480549
0.0125556821944692
0.0123481874936962
0.0121164992305598
0.0118733551356433
0.0116270324869734
0.0113812511259133
0.011139594118585
0.0109036369598285
0.0106751115523588
0.0104550882891917
0.010243679967241
0.0100415503224362
0.00984879161675078
0.0096651233600231
0.00949079774694057
0.00932541517466715
0.00916859813579579
0.00902003792996156
0.00887947193435334
0.0087465121110685
0.00862077576920659
0.00850191013771989
0.0083892851015919
0.00828297963467538
0.00818235498077383
0.00808720291649573
0.00799704999714542
0.00791175909804764
0.00783116615527593
0.00775459645733804
0.00768204970081801
0.00761327071013865
0.00754800641709738
0.0074860742023453
0.00742725253526298
0.00737119494197858
0.00731817975836301
0.00726744854682135
0.00721933127108604
0.00717347750355158
0.0071297717769193
0.00708807505255942
0.00704830835267501
0.00701044840167233
0.00697411108339064
0.00693939019500791
0.00690636484906302
0.00687465838415323
0.00684432588713253
0.00681528132652558
0.00678973303096121
0.00674609447844486
0.00586511890613574
0.00586690661957069
0.00586755346482894
0.0058718710351457
0.00588688334810963
0.00592069480408894
0.00597716480197746
0.00605551286088056
0.00615082602583192
0.00625639159366312
0.00636408557704569
0.00646618507884402
0.00655906968327292
0.00663920021022529
0.00670539574761247
0.00675805810575107
0.00679796416926106
0.00682398567808488
0.00683826373262957
0.00684403230610417
0.00683939124124926
0.00683020338456054
0.00681595227207377
0.00680378045549889
0.00677974293508073
0.0067474821360371
0.00669937393333573
0.0066295588346692
0.00653862617891892
0.00642804105639302
0.00629816806909424
0.00615274152198933
0.00599370696601943
0.00583229959659301
0.00568960553890039
0.00559227806744624
0.00558712280659963
0.00572994769136244
0.00607006788002378
0.00663579000399186
0.00743474556999414
0.00844462844342075
0.00961584291961399
0.0108780693113293
0.0121619824491064
0.0133980718244718
0.0145446221928519
0.0155695558518377
0.0164571365854184
0.0172026773205539
0.0178204464572899
0.0183124630931998
0.0186728679863585
0.0189061075086545
0.0190184311375877
0.019017131677902
0.0188792053427329
0.0186248365247902
0.0182746182860477
0.0178573422881511
0.0173635332229906
0.0168572708340956
0.0163766215662709
0.0159019186708042
0.0154567619746924
0.0150847873911983
0.0147559651680734
0.014471306025316
0.0142673922591349
0.0141017601975989
0.0139833398503091
0.0138983581865527
0.0138561127539853
0.0138473135624831
0.0138621063258996
0.0139005902275219
0.013953721369014
0.0140238903893638
0.014106527018593
0.014199150612293
0.01429230026521
0.01439027503103
0.0144897369158253
0.0145885820206495
0.0146857584346785
0.0148001663472976
0.0148422656458627
0.0147455666840498
0.014558881102602
0.0143181156731939
0.014047674042605
0.013762036110397
0.0134708517235236
0.0131790037654633
0.0128907192863047
0.0126081188799083
0.0123332292899617
0.0120673563968155
0.0118108363363988
0.0115644170839818
0.011328295789638
0.0111022861864155
0.0108866493169278
0.0106810507943118
0.0104851470132275
0.0102986391401952
0.010121262672283
0.00995263488952629
0.00979237043354777
0.00964010870812288
0.00949522729175347
0.00935774034146298
0.0092270255105085
0.00910283958574434
0.00898470150752663
0.00887242574700725
0.00876581741437129
0.00866421893261849
0.00856756647938089
0.00847557776511131
0.00838797452074211
0.00830454067649826
0.00822503396409779
0.00814908853975526
0.00807690666173884
0.00800777403020296
0.00794193017391093
0.00787902771445089
0.00781892238187233
0.00776145181907527
0.00770650415154947
0.00765402513294042
0.0076036437561911
0.0075554015063202
0.00750932759559949
0.00746507224642491
0.00742270491538017
0.0073816432272817
0.00734644407578564
0.00728537566602175
0.00598118967724952
0.00598520502572462
0.0059880120924179
0.00599319138627409
0.00600651140023074
0.00603510506871847
0.00608364290296331
0.00615378037975335
0.00624388526317799
0.00635012095005932
0.00646626002853496
0.00658525815415657
0.00670172073939417
0.0068102157830513
0.00690781852292351
0.00699304471552109
0.00706520607752387
0.00712262399077713
0.00716671483323265
0.00719945728585139
0.00721978826804391
0.00723232495561287
0.00723734506489401
0.0072404893368529
0.00723034881624952
0.00720965178443326
0.00717140113767446
0.0071097245926087
0.0070242913947045
0.00691555161048916
0.00678278791442863
0.00662802154483336
0.00645091512134549
0.00625672143973388
0.00605877311573849
0.00587150702802328
0.00572736602520272
0.00566819953584393
0.00574099636991264
0.00598564230078538
0.00643677411527909
0.00711340170373961
0.00801171727070826
0.00909971885681256
0.0103266927545196
0.0116218436895686
0.0129277511533835
0.0141852568874127
0.0153590675784839
0.0164247411050467
0.0173786610780006
0.0182108824426754
0.0189157905245026
0.0194885815502242
0.0199294392714639
0.0202376367787119
0.0203912255644343
0.0203964839386468
0.0202665248936979
0.0200262144543061
0.0196692134601795
0.0192532055864488
0.018825293208348
0.0183774145346397
0.0179341879383952
0.0175455380745725
0.0171924945014578
0.0168759092583033
0.0166337433183552
0.0164320522171249
0.0162774052703174
0.0161581514831314
0.0160826571046551
0.0160432314322056
0.0160299724459363
0.0160420933448404
0.01607088248697
0.0161177097998941
0.01617824663398
0.0162495522331476
0.0163223537064718
0.0163996899340017
0.0164784388303943
0.016555826628432
0.0166301995831209
0.0167177251906218
0.0167335943847695
0.0166125905706216
0.0163979633666061
0.0161249287591729
0.0158183344800182
0.015493809543614
0.0151620051063874
0.0148287158541897
0.0144986987656751
0.0141745196881927
0.0138584459236826
0.0135519603173718
0.0132555641112113
0.0129700598997179
0.0126957081937914
0.0124323811458175
0.0121803301192289
0.0119392532210814
0.0117088193491069
0.0114887268470159
0.0112786996769105
0.0110783487239939
0.0108872791625216
0.0107051166773862
0.0105312432512319
0.0103656205863532
0.0102076346602943
0.0100570138038192
0.00991327071094543
0.00977618544670288
0.00964553789810078
0.0095206825264547
0.00940151258992803
0.00928772758544095
0.00917903063464592
0.00907518247247222
0.0089759255604691
0.00888088188131961
0.00879020246068038
0.00870319972994095
0.0086200543805243
0.00854041912829658
0.00846412946641861
0.00839100681189756
0.00832091692080499
0.00825378414729713
0.008189243367041
0.00812730069015199
0.00806795811363992
0.00801085983674226
0.00795614358345402
0.00790268710538158
0.00785740302650352
0.00777843881689262
0.00603968116617959
0.00604547578893182
0.00605045729504796
0.00605736485375351
0.00607080595378371
0.00609660537282382
0.00613911517946045
0.00620092147847314
0.00628243887044409
0.00638233556278483
0.00649681204310685
0.00662072032319155
0.00674888385720355
0.00687543804548535
0.00699625229674644
0.00710837744943375
0.00720962762904718
0.0072973960073992
0.00737206669983585
0.00743416971922473
0.00748285847924196
0.00752140706122604
0.00755042375219334
0.00757404382600506
0.00758279274653047
0.0075787253425216
0.00755548990853866
0.00750747955331348
0.00743395656137551
0.00733488963596934
0.00720909682829462
0.0070577382805037
0.00687949409783856
0.00667689946201447
0.00645905797345311
0.00623333743036936
0.00602143921190356
0.00585114632421231
0.00575753898932612
0.00577318024332089
0.00593354360753271
0.0062734302316061
0.00682006850444763
0.0075839652894265
0.00855635770458989
0.00969781492575183
0.0109634008588167
0.0122872474154262
0.0136198987343973
0.0149172424526245
0.0161537855214341
0.0173000785723577
0.0183437323902644
0.0192677306889342
0.0200628602356903
0.0207168488999319
0.0212078910546968
0.0215291179104366
0.0216831039994499
0.0216867041664998
0.0215346278358249
0.0212746446482933
0.0209574552519067
0.0205867807698401
0.020188839666837
0.019818020514573
0.019467798657621
0.0191410478210796
0.0188772221726387
0.0186513595288202
0.0184694999823788
0.0183223799730929
0.0182180512988808
0.0181506197451888
0.0181106519063582
0.0180968192614845
0.0181008276072971
0.0181232873502558
0.0181600700692471
0.0182079433044046
0.0182578542757314
0.0183117872121808
0.0183666956634771
0.0184192646938394
0.0184672219670047
0.018524131069106
0.0185096660192495
0.0183608663533042
0.0181166307205374
0.0178112438180033
0.0174696370773515
0.0171081845552073
0.0167382635933989
0.0163663880195135
0.0159977479769194
0.0156352780360776
0.0152814439519
0.0149378658173904
0.0146051712084615
0.0142841957666085
0.0139752363302429
0.0136781990933467
0.0133933116736206
0.0131202826801259
0.0128587772011522
0.0126084789307382
0.0123690907928124
0.0121402069530405
0.0119214151101552
0.0117123196542311
0.0115123006424108
0.0113212697387891
0.0111386140368494
0.0109640330464134
0.0107970303253635
0.010637355499661
0.0104847634845708
0.0103386163065907
0.0101987711431574
0.0100649123279793
0.00993672661745249
0.0098139557632785
0.00969632807068539
0.00958345698603936
0.00947545219276716
0.00937164690592405
0.00927217587357011
0.00917669177956075
0.00908501429638541
0.00899695202629138
0.00891235415406813
0.0088311284945052
0.00875291443813791
0.00867768956963118
0.00860544246627369
0.00853579495011456
0.00846898103138394
0.00840333014230746
0.00834802347126018
0.00825148635783001
0.00606079150285028
0.00606801323858505
0.0060749671265896
0.00608390168566237
0.00609856458520413
0.0061235919269933
0.00616259158193069
0.00621814887980682
0.00629157071376074
0.00638310589454175
0.00649097789434465
0.00661212604520819
0.00674264542359039
0.00687741272025309
0.00701208867001217
0.00714305815939504
0.00726707069461229
0.00738067009454867
0.00748318291429917
0.00757368843689369
0.00765112311500524
0.00771731977353718
0.00777278501573361
0.0078200623178284
0.0078510607041777
0.00786715517749647
0.00786251580984585
0.00783187533496769
0.00777430501631705
0.00768952214203062
0.00757615970696314
0.00743491507465885
0.00726408695149134
0.00706497464229052
0.00684461056305738
0.00660704624194293
0.00636785298733865
0.00614599734359377
0.00596642040583073
0.00585113311797612
0.00582523045324706
0.00591857336515529
0.00616324035734735
0.00658902763251293
0.00721972042858474
0.00805738879625652
0.00909323865907806
0.0102859452804686
0.011594255954376
0.0129692221546805
0.0143703747012433
0.0157482397447484
0.017077789305332
0.0183259800808065
0.0194701025576525
0.0204816368341176
0.0213355506408175
0.0220117676765537
0.0225002707061728
0.0228059781904656
0.0229221399465921
0.0228835601314263
0.022738223525679
0.0224998335075449
0.0221963679431268
0.021884371141639
0.0215699506873806
0.0212601957305152
0.0209959928000838
0.0207619046502045
0.0205651396173118
0.0203993478009668
0.020272888202102
0.0201819428130916
0.0201181330642455
0.0200799734950783
0.0200597751699605
0.0200576406532549
0.0200696816758109
0.0200925323154829
0.0201174527384705
0.0201455382080417
0.0201737503318768
0.0201983320638273
0.02021640908438
0.0202390327570716
0.0201904968962921
0.0200109840139165
0.019735728037409
0.0193978461125816
0.0190220708168012
0.0186252014153697
0.0182191149745056
0.0178108862072616
0.0174060522175412
0.017007853626748
0.016618919697935
0.0162409788740023
0.0158747591923329
0.0155211142632055
0.0151803601094133
0.0148524217290004
0.0145374939868087
0.0142352826003056
0.0139454388225333
0.0136676238761847
0.0134015133186046
0.0131466781052872
0.0129026830761727
0.012669106277749
0.0124453210102297
0.0122311892679805
0.0120260943879966
0.0118297060805387
0.0116415160579578
0.0114612445088119
0.01128862059341
0.0111230108831562
0.0109642388817657
0.0108119743782946
0.0106658884660946
0.010525705665043
0.0103911400422726
0.0102617982145978
0.0101377523441464
0.0100183541705883
0.00990369807872829
0.0097934366650216
0.00968737603294964
0.00958531351467977
0.00948708465169172
0.00939258284085007
0.00930145222545935
0.00921364466153883
0.00912914258713966
0.0090475377913193
0.00896917212184708
0.00889184326244871
0.00882685102729753
0.00871352581231509
0.00605586931964362
0.00606426258002321
0.00607293507512426
0.00608387225533025
0.00610024561387866
0.00612577141060363
0.00616329377590109
0.0062149944919263
0.00628233317006262
0.00636628514018
0.0064663734672603
0.0065812058539675
0.00670836550616458
0.00684402442478595
0.00698448390265626
0.0071261637092736
0.00726547273306801
0.0073985000400732
0.00752376374659944
0.00763912879467241
0.00774312175699031
0.00783616044284731
0.00791832896103879
0.00799052952393138
0.00804556089618576
0.00808401457054091
0.00810038290998833
0.00808968981847176
0.00805086978773638
0.00798345943697221
0.00788600918362158
0.00775891662044502
0.00760034613221509
0.00741097918285492
0.00719675810034465
0.00696033482501902
0.006713964783986
0.006471913525304
0.00625294954370555
0.006071896811685
0.00594445538911265
0.00589048946698189
0.00593371609157676
0.0061016434260358
0.00642577754968205
0.00693115395087921
0.00764049215346303
0.00855140827711726
0.00965351123564254
0.0109184377019203
0.0123120884052628
0.0137786472983955
0.0152831890655424
0.0167770400121369
0.0182215403584804
0.0195677023876313
0.0207818800175698
0.021828956353668
0.0226842389546839
0.0233369768075856
0.0237758669267855
0.0240200686424584
0.024108382652735
0.0240607535719738
0.0239061428484861
0.0237005045918739
0.0234614768497141
0.0232021096248089
0.0229645308568203
0.0227432587846684
0.0225481437066622
0.0223765138871651
0.022237687468498
0.0221302704667228