/*--------------------------------*- C++ -*----------------------------------*\
| =========                 |                                                 |
| \\      /  F ield         | OpenFOAM: The Open Source CFD Toolbox           |
|  \\    /   O peration     | Version:  v2006                                 |
|   \\  /    A nd           | Website:  www.openfoam.com                      |
|    \\/     M anipulation  |                                                 |
\*---------------------------------------------------------------------------*/
FoamFile
{
    version     2.0;
    format      ascii;
    class       volScalarField;
    location    "0";
    object      nut;
}
// * * * * * * * * * * * * * * * * * * * * * * * * * * * * * * * * * * * * * //

dimensions      [0 2 -1 0 0 0 0];


internalField   nonuniform List<scalar> 
14000
(
4.51373325760331e-07
4.31965804753625e-07
3.98336448566873e-07
3.59647407871813e-07
3.17671823714922e-07
2.80943405838298e-07
2.5445393074278e-07
2.36698253158869e-07
2.26333634505853e-07
2.21979329150281e-07
2.24466062839229e-07
2.31613252664358e-07
2.4534967959442e-07
2.65285437766057e-07
2.89343471605945e-07
3.1884192451779e-07
3.54595528435564e-07
3.95467238618597e-07
4.37082363457618e-07
4.87205320902707e-07
5.36425066444246e-07
5.91214022711564e-07
6.46261634118987e-07
7.16358119430235e-07
7.8738240105746e-07
8.5493646368881e-07
9.24053381498695e-07
9.78975898817041e-07
1.01655121366048e-06
1.04053826081175e-06
1.04509360674583e-06
1.02756574549786e-06
9.84400181256078e-07
9.07503556051563e-07
8.12765606090521e-07
6.98757377602753e-07
5.79700651225977e-07
4.74794744844122e-07
3.93636075564874e-07
3.34357703382607e-07
2.86177107359576e-07
2.47162568595207e-07
2.15602023215155e-07
1.88894604721885e-07
1.64928192259879e-07
1.44493435500233e-07
1.25014658671217e-07
1.07723598644903e-07
9.18414705301173e-08
7.63586700567973e-08
6.15541972848287e-08
4.93399385832565e-08
3.8297242934937e-08
2.89579537433116e-08
2.14632380408381e-08
1.62944976329202e-08
1.29468511708957e-08
1.49811782734204e-08
1.77022969834106e-08
2.03383313798894e-08
2.27426053003832e-08
2.55946424583725e-08
2.77464576439419e-08
2.94399636178933e-08
3.13600228585381e-08
3.29305356084342e-08
3.36567269705569e-08
3.46762138270478e-08
3.51382453651667e-08
3.49808661585509e-08
3.47629432265866e-08
3.39937809350531e-08
3.309471881152e-08
3.16310200021931e-08
3.00041306443935e-08
2.81106409117194e-08
2.6098461610548e-08
3.00570833518178e-08
3.84509437862198e-08
4.95629600382428e-08
6.34476606355039e-08
8.14720421750489e-08
1.04114158040218e-07
1.33186956988691e-07
1.68564128879788e-07
2.19049289121779e-07
2.76938047771195e-07
3.14949996010176e-07
3.41073536935027e-07
3.65614243720175e-07
3.86781665607382e-07
4.04820249148532e-07
4.20670722312482e-07
4.34203304219686e-07
4.45790090647693e-07
4.55649775641116e-07
4.63944853258605e-07
4.71169218656441e-07
4.77155720667666e-07
4.82134624495515e-07
4.86474136251843e-07
4.89953051903764e-07
4.92929022927253e-07
4.95529718707991e-07
4.9763128327016e-07
4.99332612771035e-07
5.00773530940384e-07
5.02031910774719e-07
5.03030879238172e-07
5.03982635461152e-07
5.04527390262271e-07
5.05110856033514e-07
5.0562592173364e-07
5.06017642927734e-07
5.06299260944024e-07
5.06442005315142e-07
5.06852744997265e-07
5.07014186238221e-07
5.07052098129171e-07
5.07174311915337e-07
5.07301267767155e-07
5.07332825973007e-07
5.07533423642138e-07
5.07335092235249e-07
5.07586253745203e-07
5.07565518143275e-07
5.07530001838718e-07
5.07679960482243e-07
5.07724831577225e-07
5.07790492956405e-07
5.07803613368871e-07
5.08078697422145e-07
5.08163069077e-07
5.08174438164384e-07
5.08376834362112e-07
5.09046038129855e-07
5.08623726852639e-07
5.10782036231405e-07
5.09344241665988e-07
5.10751750838458e-07
5.39798582496703e-06
5.23558045980564e-06
5.08302964277628e-06
4.93076974965807e-06
4.79139305770262e-06
4.72208240439834e-06
4.7003319584286e-06
4.69586999402046e-06
4.69065513844004e-06
4.67691826891669e-06
4.65268641645779e-06
4.60837715978828e-06
4.58802722285273e-06
4.54722514012074e-06
4.48737839294108e-06
4.41665245880863e-06
4.33168242624174e-06
4.21608169072173e-06
4.07340071755326e-06
3.94233084913329e-06
3.765266076025e-06
3.61380737665136e-06
3.44332779397229e-06
3.32973033845557e-06
3.18123208864174e-06
3.06173028119657e-06
2.95064296486025e-06
2.84127931936507e-06
2.74332469252427e-06
2.66027544209743e-06
2.58042654256447e-06
2.50428470616659e-06
2.42301366584435e-06
2.32932768279933e-06
2.2393919344697e-06
2.13922930172567e-06
2.06394168591044e-06
2.02951429945599e-06
2.05359864986949e-06
2.11101232783859e-06
2.18133406089491e-06
2.26186350637059e-06
2.34134516984933e-06
2.41304036325034e-06
2.47370869560892e-06
2.52691488541542e-06
2.55971450467257e-06
2.59235105156055e-06
2.6004919799057e-06
2.59410426225071e-06
2.57390069731505e-06
2.55405570704619e-06
2.50067851100833e-06
2.44679285418723e-06
2.37941167848669e-06
2.32925124183991e-06
2.25500725602438e-06
2.20102250666844e-06
2.15203190612601e-06
2.12493474076805e-06
2.08419514028589e-06
2.07599829197148e-06
2.09897596696185e-06
2.11779371544857e-06
2.15761552014344e-06
2.23993956646562e-06
2.32909810677305e-06
2.43423504911159e-06
2.60918809680848e-06
2.76962034804899e-06
2.97464940261204e-06
3.19030547114793e-06
3.44944434421294e-06
3.73325776985734e-06
4.03326233338989e-06
4.36902707282669e-06
4.71288917099667e-06
5.09834239445011e-06
5.49906058880799e-06
5.92703499282754e-06
6.34363760361521e-06
6.79646948306913e-06
7.24596082753484e-06
7.72107862511169e-06
8.20680432154801e-06
8.84556927260264e-06
9.14900629294504e-06
8.99920079966841e-06
8.85593099936049e-06
8.70872615440686e-06
8.57448516848707e-06
8.44766921286284e-06
8.33230169360537e-06
8.2188997678689e-06
8.11402003333849e-06
8.0126616023631e-06
7.91832862669018e-06
7.83100929378093e-06
7.74671817672922e-06
7.66921956189942e-06
7.59709095948744e-06
7.52794542010265e-06
7.46552093134606e-06
7.40665516340843e-06
7.35095369490438e-06
7.2987070889298e-06
7.25019504714672e-06
7.2047884065785e-06
7.16187194970033e-06
7.12206505906227e-06
7.08209411860774e-06
7.04741430845895e-06
7.01288083610434e-06
6.98090067642628e-06
6.94947752330938e-06
6.92034313366604e-06
6.89452883092825e-06
6.8666712064474e-06
6.84162869492159e-06
6.81779028599862e-06
6.79504654668989e-06
6.77316546969299e-06
6.75290433652243e-06
6.73080429763868e-06
6.71473409503672e-06
6.69366607673503e-06
6.67748274154391e-06
6.66079426302694e-06
6.64466786154427e-06
6.62924846020056e-06
6.61445932480838e-06
6.6020050125886e-06
6.58707655719391e-06
6.57420171649957e-06
6.56370408104463e-06
6.55325369574136e-06
6.54040949072531e-06
6.54243526493132e-06
6.51277075905169e-06
6.52068446695876e-06
5.53754420551115e-05
5.4972698643952e-05
5.45069984603317e-05
5.40438818874292e-05
5.36593096167591e-05
5.35384608163495e-05
5.36513462555839e-05
5.38642663520789e-05
5.40384627758988e-05
5.40832664203131e-05
5.39791147822224e-05
5.38643273389296e-05
5.38506110080692e-05
5.35887140528301e-05
5.30139140543081e-05
5.21680302331429e-05
5.10353770661336e-05
4.94761678964423e-05
4.75223327485595e-05
4.54617320089596e-05
4.29153498524174e-05
4.04008449888902e-05
3.76590124745252e-05
3.52470127859075e-05
3.24806751689118e-05
2.98908726356703e-05
2.73540860018816e-05
2.49084521069167e-05
2.27272353436982e-05
2.08809704536247e-05
1.93220972954479e-05
1.81587636179807e-05
1.73710246002044e-05
1.69397124294644e-05
1.68741451400025e-05
1.71295190595524e-05
1.7792662915897e-05
1.8866819335896e-05
2.03438786459647e-05
2.20595389786038e-05
2.38871632579645e-05
2.57598117685182e-05
2.75888415374064e-05
2.93097478097025e-05
3.09045011804348e-05
3.23675563124332e-05
3.36604247582823e-05
3.48684923246517e-05
3.58859975954795e-05
3.67370681765493e-05
3.74531348381438e-05
3.80849938449106e-05
3.84383477884327e-05
3.86516210230202e-05
3.86942121581897e-05
3.87555430155986e-05
3.85662475711891e-05
3.8399911631549e-05
3.82579073749244e-05
3.82878448734165e-05
3.81844032442563e-05
3.83948559223511e-05
3.89967311590103e-05
3.96218459584265e-05
4.04918593258844e-05
4.19115765296389e-05
4.34770721668964e-05
4.53459571128027e-05
4.82707154982908e-05
5.09612146229787e-05
5.42163677601534e-05
5.75758087554196e-05
6.14477152756719e-05
6.55649439416703e-05
6.97665325209604e-05
7.42692808502917e-05
7.87195080269568e-05
8.34113005885854e-05
8.80535457527697e-05
9.27379348552054e-05
9.70482676879434e-05
0.000101422832638025
0.00010549896392297
0.000109470718760021
0.000113226724820131
0.000117978986475242
0.000119511558466375
0.000116526576268731
0.000112998774890472
0.000109460966574486
0.0001061604187076
0.000103076370542532
0.000100235534167257
9.75664724314524e-05
9.51036979858517e-05
9.28081635261155e-05
9.06933070978719e-05
8.87525347704574e-05
8.69493069835179e-05
8.5296671843301e-05
8.37791919442648e-05
8.23722752321216e-05
8.10900569169861e-05
7.99081681351791e-05
7.881480784765e-05
7.78046186737477e-05
7.68742370716169e-05
7.60148402389686e-05
7.52179517876104e-05
7.44816858913202e-05
7.37835571042141e-05
7.31494726939183e-05
7.2550896199652e-05
7.19951773765916e-05
7.14691255139583e-05
7.09797147435695e-05
7.05318448700233e-05
7.00942211910571e-05
6.9687838278821e-05
6.93060223725565e-05
6.89459464456184e-05
6.86054570197879e-05
6.82862060089019e-05
6.79697864704512e-05
6.76952300600393e-05
6.740789009611e-05
6.715216729357e-05
6.6905241056809e-05
6.66692717035312e-05
6.64440764755558e-05
6.62295469897226e-05
6.60341233031033e-05
6.58327907028055e-05
6.56449908903451e-05
6.54776971645058e-05
6.53141787380401e-05
6.51473727941064e-05
6.50496203106352e-05
6.48549912891169e-05
6.47143589532499e-05
0.000147246399411633
0.000146190973938248
0.000144836651404328
0.000143378317893448
0.000142129206688622
0.00014165055540985
0.00014208862475793
0.000143300680195625
0.000144992177797908
0.000146868198291271
0.000148703872600053
0.000150379383974087
0.000152192774764716
0.000153552786030409
0.000154192089639495
0.00015406657923121
0.000153104837304083
0.00015097420662949
0.000147592659305252
0.000143521065446726
0.000137968540206257
0.000131951931204845
0.000124954213036773
0.000118345335422405
0.000110548472553515
0.000102658097086641
9.44402222966933e-05
8.59667512143535e-05
7.77626573415411e-05
7.02134573994362e-05
6.34009891091738e-05
5.75700222870887e-05
5.28678213360906e-05
4.93103617570083e-05
4.70477198456622e-05
4.60007614697836e-05
4.6445404485214e-05
4.84476709499788e-05
5.20174464330328e-05
5.67636740385141e-05
6.22879216496105e-05
6.83024344940087e-05
7.45067334291828e-05
8.06621335554372e-05
8.66560314673323e-05
9.24351113469518e-05
9.78950889699172e-05
0.000103215576032636
0.000108189630471814
0.000112860777618653
0.000117352445291649
0.000121842372532188
0.000125927067890133
0.000129882918309203
0.000133695856433166
0.00013777532260262
0.000141438602171446
0.000145158002046744
0.000148947706555179
0.000153098075917294
0.000156745378304449
0.000160977918121289
0.000166178102038328
0.000171264501801431
0.000176750901949022
0.000183660798644319
0.000190839706752099
0.000198559878855989
0.000208995782090239
0.000218823776841763
0.000229737228625446
0.000240744885457586
0.000252759632280813
0.000265168934728953
0.000277453118864753
0.000290106962412187
0.000302316766191947
0.00031471025071985
0.000326689339286966
0.000338411467441649
0.000348940396775225
0.000359221869145927
0.000368582840514865
0.000377389266544143
0.000385430635635125
0.000395622155183529
0.0003988002788824
0.000390342371336427
0.000378441474344447
0.000365605270893713
0.000353026277438679
0.000340929445938855
0.000329494251846933
0.000318627346067268
0.000308425842467345
0.000298827204332761
0.000289863896086646
0.000281531870765838
0.000273749369799136
0.000266531325795373
0.000259842727597878
0.000253619037892726
0.000247875946593565
0.000242556661554347
0.000237621243056245
0.000233042704451293
0.00022880208165413
0.000224871297289306
0.000221220864291979
0.00021783651780587
0.00021466004492123
0.00021173003304714
0.000208987757609749
0.000206435413688769
0.000204039183453403
0.000201801872484286
0.000199731076258408
0.000197761902255385
0.000195919991139792
0.000194191099638609
0.000192566074782198
0.000191035452240478
0.000189599236028075
0.000188216449368762
0.000186954910629537
0.000185718543096263
0.000184574108401972
0.00018348569162101
0.000182452524481396
0.000181470846116037
0.000180537473467471
0.00017966783790045
0.000178816772067547
0.000178009605694148
0.000177261964026781
0.000176548176414394
0.000175846691125126
0.000175283124491574
0.000174607986918435
0.000173780853921288
0.000257000705416335
0.000255234398031328
0.000252608295697302
0.000249393301060382
0.000246120740832074
0.000243862641038508
0.000243187815419934
0.000244203981296186
0.000246679834141998
0.000250240351426847
0.00025452826618541
0.000258981428617223
0.000263906805135271
0.000268620720278947
0.000272659838528107
0.000275791120034112
0.000277803084302282
0.000278157027905685
0.000276528721547454
0.000273518827656679
0.000267989907703403
0.000261149521992272
0.000252225423510562
0.000243266231454682
0.000231980361413259
0.000219736863353334
0.0002060870682138
0.000190908101941674
0.000174919182495234
0.000158884518043835
0.000143173735191206
0.000128412554591246
0.000114969339065224
0.000103223886069201
9.38068009623204e-05
8.67100561227298e-05
8.26477747248064e-05
8.18686247597922e-05
8.44844517475573e-05
8.99346452665105e-05
9.7556357421556e-05
0.000106791895234377
0.000117071383319593
0.000127895580620158
0.000138934314631891
0.000149985823649195
0.000160808386908385
0.000171564562333973
0.000181981446818654
0.00019205711572267
0.000201945594210034
0.000211996933076784
0.000221734794088433
0.000231535471312671
0.000241467818717655
0.000252259612851056
0.000263019796324554
0.000274273776920676
0.000286044898414372
0.000298741281606497
0.000310934798491596
0.000323918804199384
0.000338499392039015
0.000352933250518253
0.000367632570689606
0.000384347227566419
0.000401426167350769
0.000418727366423024
0.000439776057302627
0.000460142303969086
0.000481614830066359
0.00050306526222402
0.000525668665530262
0.00054873638198088
0.000571400138903029
0.000594297847177939
0.000616363019444473
0.000638385415274055
0.000659654683135733
0.000680326066552545
0.00069909912386398
0.000717170831161717
0.000733785308219225
0.000749356856398212
0.00076361873437224
0.000780849941886086
0.000788596516720006
0.000778298118999495
0.000759944650942344
0.000738198665767202
0.000715649599622537
0.000693164967038914
0.00067128911076073
0.000650059294292314
0.000629706738141626
0.000610218818448519
0.000591691020818523
0.000574167704931269
0.000557564343816309
0.000541920966087414
0.000527210800303905
0.000513351915026112
0.000500374270511797
0.000488206802557412
0.000476792824087117
0.000466089906429233
0.000456067995525052
0.000446684495902289
0.000437891696356614
0.000429664687852694
0.000421909245264023
0.000414671673461188
0.000407864683511854
0.000401482787414885
0.000395469464008545
0.000389817824158875
0.000384536141881726
0.00037952655131387
0.000374812252603262
0.000370367610682749
0.000366174491402306
0.000362213097237053
0.000358479580617106
0.000354907296405325
0.000351586121443646
0.000348382193946325
0.000345376463515298
0.000342519661430232
0.000339806099539324
0.000337226125290134
0.000334770330829759
0.000332458744010018
0.000330228116652357
0.000328103692149527
0.000326106420230868
0.000324204146833996
0.000322363188665766
0.000320733521770178
0.000319105876988064
0.000316729206851101
0.000378292081570957
0.000376009776393029
0.00037226738015135
0.000367291609570918
0.000361689012141796
0.000356896514128257
0.000353924520458849
0.000353276662222476
0.000354995687648979
0.000358835249087914
0.000364478687713909
0.000371152890841849
0.000378902954242018
0.000387062860793367
0.000395030685554275
0.000402408058295459
0.000408829603244647
0.000413577000301576
0.000416099573158128
0.000416869626507739
0.000414510677414479
0.000410165740006747
0.000402857368179527
0.000394945973189213
0.000383748367795746
0.000370650925215091
0.000354936684003465
0.000336085289706039
0.000314641890593039
0.000291419510467481
0.000266837534642829
0.000241817500563585
0.00021672095409754
0.000192521184249075
0.000170591786107765
0.00015123755125343
0.000136246902868546
0.000126587211719962
0.0001228899702321
0.000124499541835082
0.000130462066147649
0.000139910182670889
0.000151961732366654
0.000165807027922934
0.000180817033786862
0.000196535617109409
0.000212510752533876
0.000228744435847575
0.000244883264008555
0.000260820453324361
0.000276652933954855
0.00029279572911292
0.000308813845644569
0.000325103939523177
0.000341817773269094
0.000359923499851531
0.000378607898262358
0.000398395049865389
0.000419355326201572
0.00044201009281208
0.000464649547210478
0.000488420860904898
0.000514441665587389
0.000540672595056285
0.000567156776384851
0.000596035529058335
0.000625536309206331
0.000654942492602867
0.000688333680585512
0.000721311753444586
0.000755245651299742
0.00078902272272248
0.00082387009975273
0.000859180714274643
0.000893871125850345
0.000928549546246742
0.000962076924114029
0.000995241220455149
0.00102735382922536
0.00105852201512979
0.00108727235737377
0.00111481040860822
0.00114043820656944
0.00116452599347888
0.00118680276232104
0.00121225606129718
0.00122692505143481
0.00121925991622461
0.00119905907813882
0.00117235783196569
0.00114297002641013
0.00111254839706616
0.00108211986778271
0.00105197444204358
0.00102252707325628
0.000993874394580247
0.000966205767707399
0.000939643876835397
0.000914141855126975
0.00088978582865744
0.000866582633682194
0.000844461896697169
0.000823482693143946
0.000803583364443372
0.000784710951668716
0.000766824739259997
0.00074989773996272
0.000733886434098757
0.000718738219317217
0.000704427626859542
0.00069083837942029
0.000678026991371448
0.000665887966833887
0.000654413123106787
0.000643530309127208
0.000633226274232829
0.000623511480452063
0.000614262342479748
0.000605500504999249
0.000597190659159578
0.000589306569648609
0.000581819547950278
0.000574722127128204
0.000567925038421706
0.000561535980906011
0.000555387583732938
0.000549572346708922
0.000544028018385528
0.000538743691564746
0.000533703639850617
0.000528891830897245
0.00052433090603505
0.000519941231557288
0.000515746525855732
0.000511771733167377
0.000507974648285431
0.000504321660220696
0.000500941940877858
0.000497835506763749
0.000492925155031738
0.00050825272467469
0.000505664435507758
0.000501129538723082
0.000494764548844115
0.000487138154204289
0.00047984907230691
0.000474201526775344
0.000471057828212272
0.000470807248085823
0.000473476064029864
0.000478946752887692
0.000486464765666856
0.000495935598735553
0.000506634256004853
0.000517897986272076
0.000529220127329772
0.000540110498424243
0.000549709132622388
0.000557295301381077
0.000563163609194533
0.000565784913135172
0.000566129378892603
0.000563080517518885
0.000559026141351214
0.000551122626812902
0.000540647470251234
0.000526664048041049
0.000508252955585308
0.00048560588808794
0.000459302850135261
0.000429513778950426
0.000397099494522699
0.000362137209007436
0.0003255234324509
0.000289351883743479
0.000254002974535867
0.000222491955104916
0.000197134198728413
0.00018013663611804
0.00017143016529751
0.000170054937884866
0.000174906375533636
0.000184740464144761
0.000198375586607483
0.000214817240219416
0.000233270492667493
0.000252995596143299
0.000273716501981573
0.00029493469896735
0.000316384500984586
0.000338032977766912
0.000360225231696607
0.000382594997992004
0.000405491938549068
0.000429110730108284
0.000454508566527303
0.000481106762683727
0.000509423378953357
0.000539599841636866
0.000572239828689514
0.000605648712301956
0.000640678865533912
0.000678556571689454
0.000717288653464253
0.000756518896534124
0.000798398462167957
0.000841286884042884
0.000884014723144957
0.000930516603596527
0.000976995322630411
0.00102430396024294
0.00107135783720091
0.0011192884614894
0.0011676127230684
0.00121516864423171
0.00126243040175445
0.00130828227540438
0.00135341331106052
0.00139721110866547
0.00143971929203522
0.00147943356592282
0.00151742814719457
0.00155310950108774
0.00158675986457997
0.0016181280517682
0.00165235235039658
0.00167519721050138
0.00167339637612923
0.00165556514580309
0.00162824449832808
0.00159602719340585
0.00156126403875157
0.00152547085961944
0.00148925081248937
0.00145322878962428
0.00141764747451205
0.00138280753777854
0.00134892443800761
0.00131601427082786
0.00128422039451808
0.00125359732181677
0.00122410554803072
0.00119584048736192
0.00116876526674226
0.00114284474186886
0.00111805273683507
0.00109437627389798
0.00107178179529731
0.00105022326864842
0.00102968317753453
0.00101003810832687
0.000991357553735796
0.000973529814095301
0.000956549665296582
0.000940338506797603
0.000924882561801531
0.000910197653125793
0.000896144392471102
0.000882745805239158
0.000869962053283702
0.000857762349877312
0.000846113009376408
0.000835005033077159
0.000824332792475063
0.000814219224592588
0.00080447084885832
0.000795190193048507
0.000786305193458972
0.000777800942722603
0.000769657063651355
0.000761852494814293
0.00075441208760231
0.000747242635654168
0.000740366247625064
0.000733812956254201
0.000727527108142449
0.000721488601363352
0.000715762212796978
0.000710709182623245
0.000702390035572632
0.000645253781637947
0.000642499008809486
0.000637440345774844
0.000630079632623793
0.000620903927727734
0.000611542124069461
0.000603432556685468
0.000597664339986896
0.000594912179013664
0.000595497389941643
0.000599580894388925
0.0006065764861213
0.000616447930219206
0.000628408861097733
0.000641826003515594
0.000656125007089967
0.000670737496239396
0.000684704667714574
0.000697189690209598
0.000708323648871473
0.000716479837789121
0.000722439010173425
0.000724995762647646
0.000726419996968675
0.000723817934406355
0.000718309480914837
0.000708798615034102
0.000694050062452051
0.000673900619540422
0.000648612766087248
0.000618002804449126
0.000582656374738535
0.000542227822648418
0.000497017945111725
0.000449443026887374
0.000399541486845768
0.000350853793385741
0.000306601500574618
0.000270917062317125
0.000245264796921855
0.000229636005608366
0.000223399347428675
0.000225272431459904
0.000233793505679998
0.000247583613123268
0.000265449131241934
0.000286268747349861
0.000309398277730508
0.000334090356434784
0.000359853291965714
0.000386458886122702
0.000414071933916387
0.000442349842273235
0.000471541571097183
0.000501828068292481
0.000534214983468601
0.000568375254824264
0.000604824505993672
0.000643776310944894
0.000685878612149713
0.000729643842901201
0.000775627733737267
0.000824993126414904
0.000875985174418966
0.000927946914769616
0.000982771581845382
0.0010390509413781
0.00109535671828571
0.00115507336808943
0.00121514449433649
0.00127598978276681
0.00133654243739512
0.00139774333252391
0.00145921453291782
0.00151981283856307
0.00157983962760398
0.00163824335374631
0.00169556761707837
0.00175128436497428
0.00180537369317103
0.00185639171198707
0.00190521966752329
0.00195136646057302
0.00199501120031283
0.00203592370596507
0.00207899968315829
0.00211050490218999
0.00211658173643905
0.00210432579808551
0.00208012679253056
0.0020488796454725
0.00201342087035417
0.00197567419096425
0.00193655627752555
0.00189690380236634
0.00185712242374456
0.00181763226359145
0.00177874797785496
0.00174056393674427
0.00170328685444978
0.00166702693520314
0.00163178809013487
0.00159770551875903
0.00156477653693573
0.00153299265500482
0.00150235039410338
0.00147285768515224
0.00144449807266537
0.00141723979544342
0.00139107865436635
0.00136589561144366
0.00134177413598388
0.00131860610978991
0.00129639326419547
0.0012750581345671
0.00125459113987181
0.00123501592481161
0.00121618663023768
0.001198129897044
0.00118080643552123
0.00116418481266685
0.00114823045662268
0.00113293519361864
0.00111818383334798
0.00110411201166182
0.00109050909134234
0.00107748589584494
0.00106496487682737
0.00105292906089162
0.00104135549557035
0.00103022038768739
0.0010195511654098
0.00100924493086992
0.000999322401747584
0.000989820471064066
0.000980668517261376
0.000971871525418652
0.000963395443813938
0.000956075211755132
0.00094373229349248
0.000788271055044618
0.000785437127537839
0.000780039766498489
0.000771989489062024
0.000761692833305409
0.000750752223860485
0.000740640065719129
0.000732548909891483
0.000727326820852265
0.000725522626016148
0.000727562608842342
0.00073308519208322
0.000742232423395672
0.000754276146148014
0.000768620298912194
0.000784713027713717
0.000801962122776883
0.000819352825093386
0.000835978844254051
0.000851847445673287
0.000865270079011813
0.000876863155428692
0.000885365128328042
0.000892878966671132
0.000896499592607346
0.000897177016833891
0.000893693080086154
0.000884574546392352
0.000869358015330541
0.000848001864524811
0.000819981650610738
0.000785548983375769
0.000743949160550117
0.000694787224999701
0.000640411640303414
0.000580415314751801
0.000518331992948487
0.000457510639413574
0.000403095422803344
0.000357805050717646
0.000322982101155405
0.000299375474285466
0.000286603527157192
0.000283612054931974
0.000289012384856334
0.000301375623680792
0.000319171669205559
0.00034134929821228
0.000366785146969498
0.000394671577060286
0.000424509564253841
0.000456193761740598
0.000489316804577613
0.000523973483596666
0.00056026863874293
0.000599045828182211
0.00064016191126302
0.000684112183990933
0.000731160099394536
0.00078195609439884
0.000835305070659773
0.000891528721102615
0.000951621145713792
0.00101413076330287
0.00107822926622239
0.00114541769218563
0.00121451940951797
0.00128401616638289
0.00135657872846539
0.00142981288612834
0.00150382703767206
0.00157757173138137
0.00165174699167721
0.00172603663775335
0.00179937059243993
0.00187187867941332
0.00194258648011337
0.00201187691477094
0.00207929309181292
0.00214475746762041
0.00220693916203377
0.00226651212313945
0.00232306730509125
0.00237668033510115
0.00242713094291626
0.00247882404314605
0.00251899396317827
0.00253405424850496
0.00252959397066417
0.00251144170650997
0.00248439840892369
0.0024515351256272
0.00241504940605582
0.00237612322422839
0.00233578167670996
0.00229459083031433
0.00225308840325478
0.00221168772148917
0.00217056883894051
0.00213000419651308
0.00209016378516905
0.00205110292570197
0.00201299833088655
0.00197588744770862
0.00193979435255615
0.00190474369204781
0.001870768793788
0.0018378751659079
0.00180605057013289
0.00177530763454141
0.00174554017315381
0.00171684563719859
0.00168912680763641
0.00166239507584578
0.00163657983743186
0.00161167897083824
0.00158772536366466
0.00156457445735565
0.00154225784975993
0.00152074068270172
0.00149999412204266
0.00147998611499369
0.00146071126199646
0.00144205091348528
0.001424150509634
0.00140679101802453
0.00139008952304003
0.00137396714532224
0.00135840677381659
0.00134338492710397
0.00132887728171221
0.00131491422880602
0.00130138738565427
0.00128831631331023
0.00127574610935032
0.00126359126605511
0.00125189030131252
0.00124048784365397
0.00123075669950687
0.00121409388385242
0.000936599859070269
0.000933746148605052
0.000928135919036667
0.00091961544118073
0.000908528492360389
0.000896436836577916
0.000884803041424952
0.000874847822539077
0.000867497209919197
0.000863434589167494
0.000863281980508457
0.000866882693204687
0.000874592487909772
0.000885827672936666
0.000900066608907968
0.000916858056124475
0.000935631631102874
0.00095536628957259
0.000975132336679259
0.000994862538471453
0.00101283447598232
0.00102954126796678
0.00104368801857537
0.00105721430626319
0.00106721176725117
0.00107446687807141
0.00107765809375525
0.00107512785500592
0.00106616878893585
0.00105047546393243
0.00102722887352355
0.000996357492049604
0.000956748163199303
0.000907465549967068
0.000850459302691329
0.000784990945520844
0.000714423267609666
0.000641975929161181
0.000573058407461311
0.000510770794177783
0.000457047911167775
0.000413742402989311
0.000381761443306666
0.00036128012864816
0.000351784587360974
0.000352352495814673
0.000361413523781475
0.000377737460646265
0.000399786741820338
0.000426370045140453
0.000456635379198285
0.000490125423452442
0.000526246023496083
0.000564872701026877
0.000605964564516606
0.000650117501674708
0.000697264444032418
0.000747835097430044
0.000802097907404289
0.000860656260746899
0.000922612918686907
0.000988124897690239
0.0010579683721531
0.00113098442105817
0.00120628209606686
0.00128493385184695
0.0013659491516423
0.00144783475857631
0.00153253868160809
0.00161816695634936
0.00170462496557411
0.00179088659275951
0.00187739637729873
0.00196385350573874
0.00204928153291114
0.00213365839938341
0.00221608736064524
0.00229679361242312
0.00237537124357043
0.00245169194604134
0.0025245632153909
0.0025944626549918
0.00266103952994608
0.00272427289467222
0.00278393707121429
0.00284381033787649
0.00289235873622415
0.0029168705892474
0.0029216018801187
0.00291161332210298
0.00289133353681588
0.00286383519479702
0.00283143655148101
0.00279550506783313
0.00275720963474879
0.00271725648765182
0.00267628862614318
0.00263481029230311
0.00259308727360394
0.0025514561162684
0.00251014700978963
0.00246927069583222
0.00242904557286368
0.00238955251188183
0.00235085193386829
0.00231300014726901
0.00227605875885249
0.00224005859385092
0.00220501059590862
0.00217094670370469
0.00213777984515891
0.00210562117634754
0.00207438975449105
0.00204410860816379
0.00201471833287208
0.00198622654416159
0.00195867612186948
0.00193193003640975
0.00190602571044353
0.00188093549851736
0.00185663566867534
0.00183309929765833
0.00181032526041073
0.00178819656299444
0.00176686547411851
0.00174611228262536
0.00172605826986168
0.00170662670862417
0.00168780199435582
0.00166956186960271
0.00165188331414781
0.0016347998368715
0.00161820153270935
0.00160210701821542
0.00158657019812339
0.00157149181545144
0.00155694889801523
0.00154265424939366
0.00153053539226946
0.00150956433528336
0.00108971084436763
0.00108688292945798
0.00108115106121168
0.00107231924598958
0.00106068758514118
0.00104777949474218
0.00103503542850209