/*--------------------------------*- C++ -*----------------------------------*\
| =========                 |                                                 |
| \\      /  F ield         | OpenFOAM: The Open Source CFD Toolbox           |
|  \\    /   O peration     | Version:  v2006                                 |
|   \\  /    A nd           | Website:  www.openfoam.com                      |
|    \\/     M anipulation  |                                                 |
\*---------------------------------------------------------------------------*/
FoamFile
{
    version     2.0;
    format      ascii;
    class       volScalarField;
    location    "0";
    object      omega;
}
// * * * * * * * * * * * * * * * * * * * * * * * * * * * * * * * * * * * * * //

dimensions      [0 0 -1 0 0 0 0];


internalField   nonuniform List<scalar> 
14000
(
583.984805300185
583.967107067374
583.936441179739
583.901163318955
583.894851889158
584.051667984148
584.584123981373
585.722320650001
587.716503410827
590.839104706961
595.403948507869
601.704363566029
610.162534536492
621.114972853647
635.010981141868
652.389192620983
673.829358297061
699.873963032421
731.270934037762
769.149542230976
813.853862837973
867.386533669952
930.187242572407
1004.94715109441
1089.43715126626
1185.97275032173
1291.94420762522
1405.29558336881
1524.43121681909
1646.68550110457
1768.32389840362
1886.47693342223
1996.91511984919
2097.41138841882
2187.6484360306
2264.223969917
2329.18630575371
2381.68638619683
2422.09078461383
2448.60221220323
2460.41361900217
2457.7065451615
2440.87904710745
2410.81224920968
2368.70302361449
2316.0620183941
2254.49450515461
2185.54270699371
2111.09104133977
2032.46084940435
1951.08799029092
1868.02203351111
1784.96836168519
1702.26233959709
1621.04052726983
1541.50692711485
1465.08447768106
1391.53383176121
1321.47529385369
1254.95143632109
1192.64375712472
1133.87093418209
1078.72732491809
1027.68340169061
980.216490499709
935.987818578525
895.337881417789
857.983150642829
823.413927684272
792.032630538974
763.319268088222
737.259886382772
713.599573024413
692.316405737559
673.293841656138
656.362219670186
641.458522823041
628.442766346302
617.269021514056
607.845101819593
600.095025722375
593.92613521481
589.294166340866
586.126324330302
584.360631496559
583.951321718372
584.103446391158
584.129462905496
584.156170822659
584.17792333852
584.197262605589
584.21151184178
584.226736421708
584.237319868174
584.247547371596
584.254390946825
584.260330326214
584.266369152654
584.269386076921
584.271782167626
584.273502262858
584.272757670726
584.272542808147
584.271858234564
584.270068777932
584.267316147797
584.264321547663
584.261191494824
584.257744232915
584.254453338326
584.248925374216
584.244571248485
584.239511815533
584.234420622984
584.228317883381
584.222104855518
584.217555336308
584.211424245993
584.205009401791
584.19869094965
584.192360124228
584.185916953203
584.179860667625
584.171986684302
584.166344275165
584.159020894184
584.152106631527
584.145821015021
584.139400018977
584.13303451305
584.12673173472
584.121703080976
584.115934402503
584.109324239584
584.104098978973
584.099242059401
584.093456339381
584.090151129841
584.083978909024
584.06099230372
115.783729198005
116.469929352141
116.765785879711
116.818870964035
116.557489519707
115.75162458354
114.752427753012
113.825747352837
113.113109946297
112.700332735123
112.764978540096
113.441340219028
114.575307935901
116.329326581265
118.738347332524
121.866159017458
125.841157212417
130.819456409859
136.904488206805
144.196209765731
153.060807355913
163.497658003469
175.950297596533
190.520036483024
207.77945260865
227.460354643333
249.684829636602
274.118265211601
300.192147398315
327.346807164636
355.019085868612
382.611354113532
409.204069480505
433.283869339613
453.603036394226
470.060795343148
480.895580726362
486.759626870809
488.274614084762
487.296076463243
484.138043806754
478.572982715858
470.971540732767
461.460587841184
450.161310621606
437.162448623691
423.079462061312
407.527241032484
391.58846580145
374.971431073033
357.942411645382
340.442674866596
323.580971253977
306.556099463064
290.109426482131
273.816611556054
258.854627782978
244.370809826741
230.895807574987
218.150019192267
206.71699858845
195.835937632909
185.635553998171
176.530252572415
168.06655415656
160.062158299642
152.85806967844
146.380661767491
140.307751608977
134.925511749422
129.953483906074
125.493569798802
121.432857785244
117.807075715432
114.608153534487
111.769072782906
109.332995806049
107.223406114491
105.484852878792
104.070696102343
103.022855165583
102.250308704824
101.821597507265
101.672869504858
101.826928014871
102.143403895879
103.131985135238
104.519937048079
105.587135205192
106.53674671323
107.393429539712
108.179892028172
108.894380107058
109.55660826308
110.157138342709
110.709218009214
111.209284453853
111.662852480524
112.079379516399
112.453799283553
112.793195772502
113.10344772819
113.379895392738
113.632247838232
113.861974505145
114.069651064728
114.256790653579
114.426590035579
114.581358721565
114.721210883793
114.8523675392
114.965184879704
115.072404765241
115.168660625432
115.25848035369
115.338533084746
115.40949237177
115.481670168284
115.54355178245
115.600646930941
115.653526696642
115.702760320894
115.747361500775
115.793177062348
115.825688802121
115.869152808653
115.898593915041
115.930324492715
115.960400426284
115.98838411017
116.014548491326
116.036824708493
116.064523519599
116.08618032951
116.104224830002
116.124879027797
116.148767413269
116.149333492556
116.242919807525
116.196609772566
51.7834355223849
51.8321826639646
51.9688940609926
52.1061134278592
52.1924305463232
52.1645150174843
51.9601666448367
51.6082307205956
51.1847786589923
50.7775042557881
50.427950513069
50.0924603827528
49.8681903179199
49.8896638405624
50.2007768339078
50.8155435045864
51.77166217289
53.1515978506635
55.025642266224
57.3387800998891
60.3584497613587
63.9527864374697
68.4058737057598
73.489570288885
79.8216375697597
87.2054877260517
95.8872119201323
106.001646590749
117.433702462261
130.010088377354
143.659300806998
157.681062714712
171.80214775291
185.811776694656
199.051003847317
210.780826928359
220.297575443194
226.696705990999
229.710657257673
229.634874282299
227.318224429268
223.367090591132
218.114382360432
211.872591359819
204.870605238984
197.239360740695
189.118341019853
180.650670004999
171.870040673477
162.955186301618
153.93998381794
144.866611451187
135.822105272177
126.978721119373
118.351263430008
110.090959638236
102.26406338591
95.0406342682767
88.3865864354614
82.360083586152
76.9092494806717
72.0471655578681
67.6825972067541
63.7807506545601
60.3120591733945
57.213611207377
54.4475376084973
51.9373334859759
49.5635249599426
47.5561644590563
45.7234896257151
44.1188271163958
42.6730005240312
41.4028950552049
40.3145599558625
39.3546854951325
38.557053282819
37.8690626280586
37.3191528332356
36.8780141856108
36.580495162954
36.3641469310703
36.2690485430083
36.2562871592626
36.3444322338973
36.396611593757
36.7925826471566
37.6170420922499
38.433776916965
39.2178839725846
39.9566781378594
40.663323721296
41.3342297982088
41.9797514881814
42.5927004561099
43.1782272087969
43.7326169837046
44.2550126314546
44.7509346384665
45.2165889400479
45.6532104116901
46.0650824051396
46.4480277389094
46.8062357277204
47.141688021269
47.455161184039
47.7469398093015
48.0184896720437
48.2719821427244
48.507049184281
48.7300084640618
48.9337782067525
49.1256393002007
49.3037076762109
49.4714667495765
49.6276791214299
49.7701680209127
49.9079061551994
50.0355589246017
50.1548870183755
50.2664291961354
50.3715440934418
50.4687579583439
50.5649748340974
50.6477105910955
50.7333431992932
50.8092960540237
50.8818856010068
50.950754312569
51.015918002772
51.0779674395604
51.1336865550879
51.190879257687
51.2441158644804
51.2919136107379
51.3363373964569
51.3855409637877
51.4096951766951
51.4614359715772
51.5028633725298
30.4979732308357
30.6467437949861
30.8911379753652
31.2168461940249
31.584181483506
31.8970830209264
32.0679287419668
32.0580550191666
31.8808855074726
31.5852702653692
31.2138442340338
30.8069090846311
30.3776557615368
30.0166854096362
29.7721632813806
29.6639703247417
29.7112857893879
29.9568113587381
30.4474316281454
31.1392509471784
32.171512942091
33.4636040614933
35.1597876331483
37.0827594887595
39.5576921416913
42.4988534460554
46.0588996210251
50.3970305769902
55.5670694143195
61.5869080216253
68.5547541287713
76.4111220841492
85.0994748318685
94.7705210105835
105.116911511832
115.97438846305
126.483097123077
135.560426390656
142.017601695
145.477462204277
146.348633524053
145.176611125464
142.474237832813
138.686280800703
134.181236187752
129.125827427289
123.766587737329
118.137905955233
112.363809176942
106.542210947627
100.717355733413
94.783270193973
88.8627692383265
82.9825970182539
77.1761054596054
71.4251736989811
65.8810887074621
60.6534693482522
55.782132106096
51.3006054011979
47.2724064741529
43.7015143496559
40.4967274542376
37.6836107750182
35.2408344305517
33.0840061732954
31.1911501773878
29.5392200354048
27.9950310913837
26.7002163055887
25.5505030616849
24.5546885230016
23.6711716305818
22.8977947143398
22.2393288147907
21.6609734409107
21.1763159075829
20.7556311595435
20.4089686360379
20.1201332174607
19.9058074653552
19.7340332807905
19.619696926356
19.5436794289417
19.513738189365
19.4534345099412
19.5355422096918
19.8513797583961
20.2216964006663
20.6038065535427
20.9772890818137
21.3439392085064
21.7013662311363
22.0540213823793
22.3986474775238
22.7370913693393
23.0673000252515
23.3877931687221
23.7005172639556
24.0032350101772
24.2954466113562
24.5786212008418
24.8500509897943
25.1107096462771
25.3610347509974
25.6010429994191
25.8303392377097
26.0490192490059
26.2577748436832
26.4559349804478
26.6467769002357
26.8265075141051
26.9982645095285
27.1610292828666
27.316576208556
27.4644359841906
27.6028449625505
27.7364361651022
27.8629964100618
27.983256920772
28.0973572853992
28.206074129423
28.3084718559553
28.4087428958435
28.5000264294152
28.5907312144146
28.6749720209112
28.7555372218384
28.8323853902099
28.9056766491007
28.9759233489597
29.0410703229482
29.1053346850715
29.166572433834
29.2235056772612
29.2767262497748
29.331245981654
29.370531220388
29.4233968435069
29.4797278574505
20.4687408933262
20.5934271588597
20.7984799535204
21.0910420413949
21.4577270008548
21.8305738976618
22.1397511476113
22.3327171926442
22.3862392251955
22.3077103568003
22.1130682362771
21.8468002885549
21.5150802089953
21.1723561742792
20.8575477753263
20.5934840747883
20.3975701316154
20.2967311997437
20.3214215348132
20.448874541489
20.749879399607
21.1817143835615
21.8142668221818
22.5429592032907
23.5168434913418
24.6911413794697
26.13594213279
27.9403940664721
30.1567206325298
32.8275117056711
36.0509127504511
39.8903709037839
44.4639484734955
50.0014221502875
56.5391569893712
64.3305870778484
72.9965899045595
81.8585439671299
89.6988595011028
95.6963627839899
99.589545001033
101.444783621929
101.574337580673
100.360284126563
98.1912618039394
95.2988113343624
91.9821439078904
88.3107757576014
84.4520074733589
80.4994653746881
76.5227732192378
72.4211216768683
68.2963113703111
64.1285935243132
59.9511072185106
55.6916771549405
51.4853411960069
47.4034383334167
43.5182102249618
39.8613298096166
36.534759865065
33.553956711188
30.8597025102856
28.4898852567072
26.4357964541223
24.6271342480995
23.0460123238931
21.6898094782051
20.4499847250988
19.3979323208588
18.4783664471501
17.6834624087755
16.9849245904488
16.3735204806654
15.8495230731137
15.3903537887986
14.9991152410239
14.6576894649315
14.3679266008191
14.1196354250403
13.920026619709
13.7516363344374
13.6192916856656
13.5123377400687
13.4333681771334
13.3389616255771
13.3108366116674
13.4108486239018
13.5608283049544
13.7301649611813
13.9020798861923
14.0743152968783
14.2448161746652
14.4155281458771
14.5850471380249
14.7542929606837
14.9223947643581
15.0885327953108
15.2535901121092
15.4164975210847
15.5768331834708
15.7352024500531
15.8901477144217
16.0418636184448
16.1903675737234
16.3355147816149
16.4769163546952
16.6143797393196
16.7480313713149
16.8772920625424
17.0036998844307
17.1252069135304
17.2431582549898
17.3568778414451
17.4671502707133
17.5736842012302
17.675339214698
17.7743549412347
17.8696178957079
17.9614262827651
18.0497612128078
18.1349530454505
18.2164092737925
18.2963882333175
18.3712116667134
18.445195292917
18.5153387663181
18.58300246352
18.6481357214362
18.7108220686634
18.7713628217688
18.8285797016923
18.8846639327001
18.9386600187284
18.9897360376881
19.0382368389272
19.0864543983468
19.1264758750688
19.1705160775761
19.226699039152
14.9422562737634
15.0304589906185
15.1786712009039
15.3976267318472
15.6875118823441
16.0108296779833
16.3232881352652
16.5826003204355
16.7573201980586
16.8331419479111
16.804174337399
16.6935061825193
16.5063499313474
16.2733899888743
16.0237685662668
15.7783035988464
15.5536839668592
15.3708640842365
15.2522401477156
15.1877715630446
15.2183334618175
15.3211396805082
15.5332832877584
15.7934336564259
16.1735129592304
16.6465260175773
17.2425491594446
18.0050185466223
18.9619778573995
20.137816722101
21.5887313693026
23.3623077022434
25.56812570805
28.3506912765923
31.8343331804116
36.3537235926592
41.9502028609115
48.4916940157098
55.2991941102459
61.6675680584724
67.0356446138218
71.018081802516
73.5229900627105
74.6580598414057
74.6641422886922
73.7453811240542
72.1934162147912
70.1277927324211
67.7385614867521
65.1427819630066
62.4372002148667
59.5726654732474
56.6292485456375
53.5899574518588
50.4816439440262
47.2353093720504
43.9388751625022
40.6462162525185
37.4322386070037
34.3364731273169
31.459636446612
28.8398441455376
26.4503846791705
24.3249382438749
22.4682828995388
20.8326358130513
19.3994035066894
18.1696561448061
17.0669708366014
16.1196360862353
15.2955846274151
14.5823185636082
13.9581951339783
13.411631110565
12.9395091040246
12.5257631749658
12.168694288082
11.8556848918403
11.5850742069739
11.3493424490056
11.151074077308
10.9794434734744
10.8352686105796
10.7115604672675
10.6085877376029
10.4994202781997
10.4259778712436
10.4289812031452
10.4712790415282
10.5327803141742
10.6008897439032
10.6722145004692
10.7446807263575
10.8189426197502
10.8941801248455
10.970839996772
11.0484866776242
11.1266497307503
11.2057881496064
11.2853565420203
11.3650922992794
11.4453042793583
11.5251939426996
11.6047887341803
11.6840450822031
11.7628415831577
11.8409103817205
11.9180730214881
11.9943194024051
12.0692457444107
12.1436291779731
12.2162977876756
12.2878853325412
12.3579473438769
12.4268428133423
12.4943632631684
12.5597786100075
12.6242419908619
12.6871070088167
12.7484758734384
12.8082848653768
12.866659823855
12.9232061629083
12.979168804502
13.0324324837662
13.0853637345914
13.1362709829171
13.1858603989548
13.2340700940949
13.2809194528697
13.3265593093352
13.370274994249
13.4132680005052
13.455040115867
13.4950103756596
13.533467481807
13.5713502452728
13.6049325687971
13.6385069741185
13.6858393400728
11.5397687437677
11.6023714692917
11.7086561685825
11.8680108525636
12.0846279383012
12.3386605201189
12.6046932885755
12.8551368817329
13.0644250929431
13.2137441973593
13.2876682818602
13.2921961367131
13.2256480478434
13.1045229009577
12.9473292527726
12.7698433161442
12.5862470533232
12.4138117289976
12.2704492854742
12.1528312454224
12.0883238178803
12.0647393320605
12.1047559984974
12.1707733363838
12.3016958572132
12.4803730847045
12.7203934999064
13.0438175751178
13.4648824063164
13.9952126456433
14.6634831703995
15.4942063811608
16.5509282585109
17.916681305186
19.6632745752035
22.016584954034
25.1115722542193
29.0662286316767
33.6970202776861
38.7084151291326
43.7196688462394
48.2808497840992
52.0505508315661
54.8357259951207
56.6154859669739
57.435776258121
57.4896259641363
56.8820503664257
55.7992553708989
54.3726929322369
52.7180708078069
50.836147726107
48.805834065684
46.6251131312361
44.3205676371424
41.8410852477511
39.2411971875436
36.5606238234612
33.8669823004616
31.2060457746294
28.6693141920423
26.3115762684751
24.1344970331609
22.1694830860679
20.4314288056851
18.8938081747269
17.5397542122161
16.3699830403651
15.3327648362106
14.4338052301336
13.6515530477814
12.9726574109584
12.3793939013249
11.8595089698007
11.40755761902
11.0109755026524
10.665680970646
10.3618682295763
10.0962030226533
9.86244380473692
9.66065702064492
9.48333208240197
9.32950117533715
9.19394443122701
9.07577025108167
8.95702804776805
8.8600109603934
8.81175966100639
8.79390408738021
8.79359069715639
8.80165081186858
8.81467565306988
8.83061884701235
8.84941854987733
8.87039905783697
8.89369120785682
8.91897748096956
8.94590983512702
8.97470232520278
9.00500968007251
9.03663049728004
9.06971315037036
9.10376378119148
9.13874761532184
9.17460318895234
9.21122841606571
9.24843028278827
9.2860645079024
9.32408443601714
9.3622086078993
9.40086043632786
9.43931914998742
9.47790748358657
9.5163271871743
9.55475229672848
9.59302955147636
9.63067459498252
9.66832912799584
9.70558730331176
9.74246834459037
9.77890265519565
9.81493084785303
9.85028070284428
9.88567798605655
9.91981817400627
9.95408850621168
9.98745991001736
10.0203175306409
10.0526008036235
10.0842988203784
10.1154806265063
10.1456819935993
10.1756021316082
10.2049513069461
10.2332992782403
10.2608853510421
10.2880418364946
10.3129825734115
10.3367794527007
10.3722651191688
9.26951510778682
9.31550857458108
9.39383917586696
9.51179989950969
9.67381769062443
9.86866616572267
10.081728000192
10.2963820459629
10.4954739261349
10.6635579891989
10.7846332147144
10.8564349341423
10.8715114624703
10.8372370357014
10.7627588864989
10.6580981367202
10.5334890581429
10.4024761720279
10.279433178477
10.1640786628003
10.0767500873749
10.0109834238834
9.98260326165715
9.96735960885879
9.98918163333373
10.0369714948647
10.1176850314944
10.243820982438
10.4233342291551
10.6620652137441
10.975335169352
11.3755239489273
11.8970566464795
12.5885222078399
13.4806254703708
14.6956128996181
16.3240818060811
18.4871878487903
21.1909738013933
24.4048162472028
28.0303347823282
31.8416404775341
35.5645705015363
38.9220343411406
41.7099202336064
43.7818109827464
45.1594918169113
45.847885746049
45.9727953311398
45.6428813401313
44.9689778189829
43.9799970754665
42.7620600638047
41.3295088805812
39.713679904904
37.8829448910456
35.8763429465962
33.7229787095633
31.4806937582901
29.1978990153068
26.9572801189838
24.8227400194673
22.8187273391662
20.9791387700475
19.32673911939
17.8531190753671
16.54634418468
15.406770211548
14.4005946097334
13.5227146184762
12.7566893482658
12.08951622563
11.5061590568381
10.9944295854331
10.5473332236699
10.1542543081858
9.80982614714682
9.50579005965358
9.237932432645
9.00065858642608
8.7925159335044
8.6077685495031
8.444563931654
8.29861337411838
8.16838054117447
8.04123508341536
7.92871618891086
7.84878291474382
7.79250217885687
7.75189705602332
7.72048007552452
7.69526618688947
7.67434487717196
7.65726048154777
7.64334951914184
7.63251765578935
7.62444978628392
7.61881980251888
7.61567204247944
7.61472435828065
7.6157786810111
7.61886988940456
7.62363900995323
7.63000526865121
7.63788352858747
7.64716865792984
7.65769822204156
7.66934129829072
7.68203037871602
7.69555096240228
7.71013770232486
7.72530957958312
7.74123112619327
7.75768748695289
7.77475978717714
7.79232782378946
7.81005143684451
7.82830717732367
7.84682246317636
7.86558008666438
7.88451329614852
7.90362459045482
7.92271756674773
7.94223777563407
7.96133215456108
7.98085939772216
8.00015518882003
8.01943736749263
8.03865120718688
8.0577735918144
8.07683192863571
8.09550754030045
8.11422789112478
8.13281146899061
8.15093074905472
8.16877435722466
8.1864149482379
8.2029525426195
8.2183942538152
8.24220901470572
7.66193446724709
7.69695698990314
7.7566010797216
7.84643436157826
7.97014976160285
8.12066242238235
8.28893205162974
8.46485660512651
8.63771098538959
8.79688011637942
8.92955735238267
9.03131095088327
9.09268262133819
9.11527970306006
9.10235171598777
9.05856943670758
8.98998521785923
8.9062926054688
8.81848476251094
8.72711394156835
8.64800327752903
8.5776292625146
8.5280338140851
8.48272174474321
8.45822218889911
8.44730214920873
8.45423342408592
8.4871078236786
8.55108761900472
8.64961498649479
8.79177823421432
8.98446618844087
9.24726374145174
9.60999169496436
10.0857910240247
10.7394434156771
11.6169545654535
12.7890934552083
14.2833152241846
16.1349881220002
18.3711220724202
20.9550573458938
23.7961778492247
26.7406309342018
29.6055053448425
32.1784980726359
34.3495426336097
35.9961115484262
37.1331795928201
37.7965967646712
38.0528187859031
37.9226548525119
37.4884578225328
36.7723392349482
35.8093579549716
34.5830784980118
33.1289486012285
31.470157109089
29.6557539414492
27.7339153973502
25.7805544252421
23.8631063079846
22.0228978163226
20.2999273020691
18.7240694528439
17.3020031467797
16.0292198750019
14.9071704252762
13.9153163591126
13.0446156345146
12.2816650583499
11.6142927821414
11.0295652970325
10.5157789517227
10.0649927160365
9.66773085270481
9.3179005375559
9.00814916518847
8.73377117480513
8.48951155517182
8.27293048663211
8.0792805055974
7.90622623082187
7.74999667469185
7.60866323298398
7.47295118438326
7.34803905440707
7.24564849554295
7.16187298461209
7.09203951333385
7.03173734719944
6.97855983231337
6.93081621909148
6.8878532277417
6.84899112636796
6.81397215987993
6.78244312554477
6.75405739800032
6.72872979029334
6.70618198311178
6.68619197663146
6.6687043940837
6.6534141971802
6.64019739350086
6.62893836359904
6.61951473228541
6.61176882674368
6.60556667734463
6.60082021362117
6.5973465253849
6.59526536224637
6.59422693193442
6.59430303662969
6.5953233414357
6.5973135428005
6.60017019030068
6.60363796190213
6.60794138494657
6.61288327677822
6.6184277454182
6.62451037069454
6.63111340292564
6.63808674784414
6.64571333537535
6.65340645435173
6.66171932138441
6.67020053017341
6.67897468349471
6.68799248612409
6.69722567580592
6.7066795984238
6.71612512895545
6.72583316437898
6.73568244070009
6.74541933007033
6.75518672803352
6.76495458308512
6.77421402015086
6.78283813088728
6.79641539058527
6.47105745762831
6.49856842531583
6.54534212283794
6.61570196978317
6.71257383393651
6.83103558123478
6.96493037818451
7.10769201180594
7.25255440803869
7.39269190118526
7.51895445625031
7.62747497099581
7.70947100140883
7.76382690490276
7.79063304939152
7.7908004534404
7.76702117910041
7.72548725562697
7.67401780540126
7.61279889835857
7.55416931042425
7.49588191717458
7.44742190903318
7.39685631522431
7.35660994855761
7.3219150241443
7.29592795285172
7.2845990348976
7.29181448284249
7.32003974014304
7.37533757299457
7.46209581800254
7.59247546104579
7.78539156946168
8.04813415691639
8.41671649799621
8.91327771090709
9.57356353161754
10.4115397804953
11.4554966428631
12.7453387509492
14.3049716983159
16.1442190284168
18.2380017887167
20.5231288918762
22.8674094605945
25.1602058604099
27.2304082917023
29.0011016913272
30.4177610563807
31.4701299020531
32.13104032396
32.4521013800289
32.4426725658575
32.1307609351453
31.5045153858444
30.5989367784622
29.4339858508885
28.0517758473989
26.498358555684
24.8448070499768
23.1585705257676
21.4923471477733
19.8940260260116
18.4006444392229
17.0315157548247
15.7911812906409
14.6841313240889
13.7001388950605
12.8305083531331
12.0643191509198
11.3906418661241
10.7984059451907
10.2767048326753
9.81716408465672
9.41105356925034
9.05188826315937
8.73288768514734
8.44907158413021
8.19537395304727
7.96868647052499
7.76482103886956
7.5811539456107
7.41421026628008
7.26180533799282
7.11687150423133
6.98063371027407
6.86042914885699
6.75510519475951
6.66223291579499
6.57899566915738
6.50358702526168
6.43458352085479
6.3712587797479
6.31292303572958
6.25920066951272
6.20968887122038
6.16400312441695
6.12195330019483
6.08323778890061
6.04759802920288
6.01490219523894
5.98485847660322
5.95730059478582
5.93207875903368
5.90904583050815
5.88803486135008
5.86889920709015
5.85152883170428
5.83575186628457
5.82161022727044
5.80882706033428
5.79741312449125
5.78721993209804
5.77823503564502
5.77036116172231
5.76339317530225
5.75746050505374
5.75240870135711
5.74818986978397
5.74473960941646
5.74202700229551
5.73992987310745
5.73862987266557
5.73770470511012
5.73752001533675
5.73775419500868
5.73847615036845
5.73964011498104
5.74121491943314
5.74319297884914
5.74540235997611
5.74801842505113
5.75095455970342
5.75401113542765
5.75729233990332
5.76073635639605
5.76398973778063
5.76716557609894
5.77221229241581
5.55731765995034
5.57949933305827
5.61710134041593
5.67356435882655
5.7512180771558
5.84643185073113
5.95466938249702
6.07128219944647
6.19173124519004
6.3115975397129
6.42458285903627
6.52804127431882
6.61492584706668
6.68340073141224
6.73220590242141
6.76039843940791
6.76836369394698
6.7595923270599
6.73924374229821
6.70669247179681
6.67136881445716
6.6313550700185
6.59408869134505
6.55030097968604
6.50977730025427
6.46926125439707
6.43137390071029
6.40092449834364
6.38117070558983
6.37417684776175
6.38444041549786
6.41514762423411
6.47456277008197
6.57534820766205
6.7223068959364
6.93728307235461
7.23118412583216
7.62169009065332
8.11226056491063
8.71702898392057
9.46149973703119
10.3698976034627
11.470573114798
12.7860367274179
14.3286538283463
16.0655269366513
17.9630672249767
19.9063612316103
21.8127769018216
23.587614143142
25.1583507289061
26.4357746989899
27.4161207939527
28.0702521278969
28.3991732418378
28.3774452631509
28.0325544351266
27.3783170659068
26.4496028986775
25.2882326896482
23.9614244164699
22.5343933241662
21.0663930848941
19.6133575693532
18.2196676061906
16.9153759153676
15.7149636190023
14.6279203684601
13.6527038362866
12.7836255070414
12.0125973805291
11.3304482996976
10.7279599261357
10.1953183233457
9.72419090305802
9.30645680249887
8.93548831109444
8.60491688061803
8.3096347415605
8.04470151453103
7.80655740991609
7.5913330805247
7.39622073925916
7.21791727350433
7.05406354548873
6.89907849678946
6.75167505220209
6.61608797130185
6.49267001989038
6.38050188451044
6.27796970162832
6.18382112321579
6.09691430301678
6.01652818776161
5.94197876523509
5.87280780434823
5.80856348156567
5.74881771349171
5.69329236424838
5.64164995117985
5.59358976880439
5.54891279220176
5.50731885659135
5.46860029414174
5.4325716393965
5.39905725935909
5.36787327951658
5.33885506572476
5.31186969347735
5.28674449863241
5.2634641214907
5.24179175664787
5.22169412725839
5.2030314125625
5.18576211090575
5.16978861826104
5.15493531374537
5.14126770835155
5.12865512374189
5.11704025267905
5.10635663808574
5.09656327057922
5.08755449804782
5.07944490504508
5.07191738067116
5.06521625187958
5.05910176715734
5.05360729902338
5.04868871490094
5.04431244284799
5.04046233007303
5.03700389659468
5.0340511654736
5.03153766190271
5.02930348049786
5.02742074411367
5.0258275872431
5.02421331260571
5.02305709034693
5.02114682949432
4.83630667234106
4.85458637898999
4.88544574867857
4.93168285513104
4.99519137843383
5.07321017957267
5.16223446562284
5.2587379879669
5.35942699195757
5.46127452660578
5.55988393089654
5.65363388748687
5.73724578820215
5.80908857674547
5.86764665086581
5.91137146152964
5.93940375140937
5.95348227548308
5.95679367169514
5.94794095360666
5.93395306787452
5.91279922297027
5.89015713913272
5.85829902869247
5.82504609224775
5.78799336047399
5.74939069139079
5.71332881041911
5.68269160694834
5.6593554788127
5.64693652957716
5.64799429705844
5.66860577810351
5.71774408945615
5.79888170835344
5.92643149624316
6.10607609367373
6.34675322989412
6.64699711526527
7.01233891544603
7.45612941636696
7.99266100747671
8.64260420942211
9.42990035227776
10.383017257849
11.5135371341391
12.8426748345158
14.3351137912314
15.9633098481701
17.6661847959011
19.3716571816838
20.9650587210596
22.3947333764802
23.5834154031576
24.4875550640289
25.0468372103538
25.2651141301614
25.1393129870255
24.691442208408
23.9544890487561
22.9906154518113
21.8605596749542
20.6257722100945
19.3490286483862
18.0818159778629
16.8633545306088
15.7183649105132
14.6630372144572
13.7037633841792
12.8396525293443
12.066251737875
11.3767803145905
10.7640815420888
10.2197687880023
9.73602380608296
9.30537824695567
8.92129826692056
8.5777828346171
8.26972310197827
7.99229886166013
7.7416690871588
7.51415327707896
7.30682636309558
7.11648902632851
6.94066365319252
6.77477714618739
6.61597057314092
6.46631950879607
6.32696341311424
6.19796766168695
6.07859727184464
5.96807040562851
5.86551298834838
5.77025443170393
5.68163138586008
5.59913055903087
5.52225690148215
5.45053911448962
5.38362426800018
5.32113391616011
5.26272356117474
5.20813410024311
5.1570454137003
5.10920978313941
5.06440604020121
5.02242857994886
4.98307256651342
4.94615266570776
4.91151284462462
4.87897284640219
4.8484725200653
4.81979575239641
4.79287523873973
4.76757209220147
4.74382117356237
4.72152066047634
4.70051177974829
4.68081451654458
4.662310691274
4.64493469255299
4.6286165453349
4.6133066810942
4.59890886563478
4.58549095050364
4.57280503025547
4.56101344510947
4.54992943821755
4.53956234433958
4.5298682051129
4.52081103982047
4.5123683611422
4.50443065565659
4.49707078008387
4.4902338735153
4.48378945542044
4.47778317897208
4.47216663066228
4.46661896181185
4.46200374909278
4.45445491652479
4.25426696611058
4.26961069193642
4.29537819612297
4.33388293172083
4.38669543793353
4.45168400446787
4.52607574431429
4.60708220168574
4.69215464481112
4.77906000333978
4.86459040992609
4.94777491218467
5.02473441144814
5.09428756424613
5.15515191553603
5.20579938734409
5.24497124041038
5.27339669616414
5.29297466449013
5.301818171732
5.30507825853828
5.30050523235532
5.29228216830998
5.27359927494246
5.25067131522844
5.22150700862506
5.18799183476114
5.15365643078667
5.12108633467478
5.09202382867968
5.06952582225656
5.0557805328955
5.05554063364375
5.0755039506057
5.11831441835258
5.19415255576282
5.30618926002551
5.45911015762314
5.64965700202065
5.87918430231815
6.15415403725675
6.48167931680561
6.87358581698756
7.34539983808963
7.91911456627102