/*--------------------------------*- C++ -*----------------------------------*\
| =========                 |                                                 |
| \\      /  F ield         | OpenFOAM: The Open Source CFD Toolbox           |
|  \\    /   O peration     | Version:  v2006                                 |
|   \\  /    A nd           | Website:  www.openfoam.com                      |
|    \\/     M anipulation  |                                                 |
\*---------------------------------------------------------------------------*/
FoamFile
{
    version     2.0;
    format      ascii;
    class       surfaceScalarField;
    location    "0";
    object      phi;
}
// * * * * * * * * * * * * * * * * * * * * * * * * * * * * * * * * * * * * * //

dimensions      [0 3 -1 0 0 0 0];
oriented        oriented;


internalField   nonuniform List<scalar> 
27760
(
0.000117000109100286
1.65824743995159e-06
0.000112650623347999
4.34948575228753e-06
0.000107077409557016
5.57321379098253e-06
0.000100431930658234
6.6454788987805e-06
9.33147662475086e-05
7.11716441072569e-06
8.73937757508507e-05
5.92099049665751e-06
8.29866080702512e-05
4.40716768060137e-06
8.00718950615685e-05
2.91471300868273e-06
7.86005763091417e-05
1.4713187524288e-06
7.8504215978931e-05
9.63603302091989e-08
7.99043006731399e-05
-1.40008469420738e-06
8.22194379290158e-05
-2.31513725587325e-06
8.60651250528031e-05
-3.84568712378412e-06
9.06520989398907e-05
-4.58697388709127e-06
9.59729637925553e-05
-5.32086485266228e-06
0.000102132017708461
-6.1590539159092e-06
0.00010895422986627
-6.8222121578118e-06
0.000115950566214268
-6.99633634799968e-06
0.000123022303062174
-7.07173684790198e-06
0.00013089965229512
-7.87734923294579e-06
0.000137898603106454
-6.99895081133344e-06
0.00014588717172931
-7.98856862285696e-06
0.000153459007038533
-7.57183530922099e-06
0.00016294462595582
-9.48561891728784e-06
0.00017047622515722
-7.5315992013994e-06
0.000178484980664632
-8.008755507412e-06
0.000185118930032912
-6.63394936827996e-06
0.000189690601904472
-4.5716718715594e-06
0.000192652138198781
-2.96153629430996e-06
0.000193924833189306
-1.27269499052308e-06
0.000192897856548933
1.02697664035897e-06
0.000189633402081718
3.2644544672147e-06
0.000183216428203636
6.41697387808216e-06
0.000173734256528464
9.48217167517294e-06
0.000162417852503046
1.1316404025404e-05
0.000148187078270132
1.4230774232926e-05
0.000134004861256497
1.41822170136211e-05
0.000120781444457627
1.32234167988604e-05
0.000110090397364618
1.0691047092997e-05
0.000100934483451281
9.15591391334153e-06
9.27243050030298e-05
8.21017844824045e-06
8.55995651831697e-05
7.12473981986041e-06
7.91505104082851e-05
6.44905477488592e-06
7.313703293552e-05
6.01347747276269e-06
6.73416295289947e-05
5.79540340653777e-06
6.19116097662396e-05
5.43001976276438e-06
5.61882320585606e-05
5.72337770767881e-06
5.08788847315472e-05
5.3093473270137e-06
4.50952394635197e-05
5.78364526802414e-06
3.90504465745948e-05
6.04479288891862e-06
3.26904358000841e-05
6.36001077451058e-06
2.67093176713094e-05
5.9811181287713e-06
2.01211229096932e-05
6.58819476160239e-06
1.38785557395516e-05
6.24256717014291e-06
7.6842420566927e-06
6.19431368285933e-06
2.55378060940011e-06
5.13046144728368e-06
-2.52567079662809e-06
5.07945140602728e-06
-6.78436879973627e-06
4.258698003106e-06
-1.05232750660823e-05
3.7389062663469e-06
-1.33595764642992e-05
2.83630139821752e-06
-1.60996327080802e-05
2.74005624378928e-06
-1.8277257613629e-05
2.17762490554923e-06
-1.96738683683028e-05
1.39661075466951e-06
-2.09053227088983e-05
1.23145434059528e-06
-2.18860922162664e-05
9.80769507367227e-07
-2.22467085194643e-05
3.60616303198061e-07
-2.22521263350201e-05
5.41781555546972e-09
-2.21730337417317e-05
-7.90925932900168e-08
-2.12508296326827e-05
-9.22204109046619e-07
-2.02453560714718e-05
-1.00547356120826e-06
-1.86771453549267e-05
-1.56821071654492e-06
-1.67898458766061e-05
-1.88729947832115e-06
-1.43232045489921e-05
-2.46664132761377e-06
-1.13079950654571e-05
-3.01520948353639e-06
-7.83835513131328e-06
-3.46963993414265e-06
-3.69257503644557e-06
-4.145780094868e-06
9.30223586955892e-07
-4.62279862340239e-06
6.30820037200272e-06
-5.37797678504702e-06
1.22779591615966e-05
-5.96975878959389e-06
1.90227535497928e-05
-6.74479438819616e-06
2.62371135767239e-05
-7.21436002693134e-06
3.43522977530104e-05
-8.11518417628672e-06
4.30665104072915e-05
-8.71421265428044e-06
5.27400449637219e-05
-9.67353455643019e-06
6.33281982900752e-05
-1.05881533263532e-05
7.60071359001588e-05
-1.26789376100826e-05
8.61713826083481e-05
-1.01642467081897e-05
9.19391148159242e-05
-5.76773220757528e-06
9.70271774828036e-05
-5.08806266687914e-06
0.000101172156782068
-4.1449792992635e-06
0.000104657939341678
-3.48578255961113e-06
0.000107579351630689
-2.92141228901026e-06
0.000110098476989673
-2.51912535898398e-06
0.000112187079058897
-2.08860206922354e-06
0.000113985950117713
-1.7988710588163e-06
0.000115482389367269
-1.49643924955601e-06
0.000116763910867322
-1.28152150005341e-06
0.000117865184919294
-1.10127405197251e-06
0.000118767294284942
-9.02109365647575e-07
0.000119549464360827
-7.82170075884611e-07
0.000120215744613872
-6.6628025304586e-07
0.000120757791914415
-5.42047300543228e-07
0.000121248555728388
-4.90763813972906e-07
0.000121659796464967
-4.11240736578579e-07
0.000122002209477737
-3.42413012770421e-07
0.00012229357627179
-2.91366794052888e-07
0.000122549474411825
-2.55898140035243e-07
0.00012277197630003
-2.22501888204164e-07
0.000122961206868071
-1.89230568041785e-07
0.000123133097404366
-1.71890536295214e-07
0.000123246411126455
-1.13313722087994e-07
0.000123389730418401
-1.43319291946303e-07
0.000123489200106878
-9.94696884773637e-08
0.000123587055827258
-9.78557203799685e-08
0.000123656717720207
-6.9661892948176e-08
0.000123730213294589
-7.34955743828486e-08
0.000123824437393133
-9.42240985434346e-08
0.000123859241346684
-3.48039535512504e-08
0.000123914185106004
-5.49437593195449e-08
0.000123963613360739
-4.94282547357823e-08
0.000124009768070174
-4.61547094344011e-08
0.000124050051696071
-4.02836258975828e-08
0.000124097365544334
-4.73138482630417e-08
0.000124100003178812
-2.63763447724338e-09
0.000124182355123016
-8.2351944204599e-08
0.000124171024986042
1.13301369740705e-08
0.000124224843883097
-5.38188970553922e-08
0.000124257008072676
-3.21641895783745e-08
0.000124287533859473
-3.05257867976902e-08
0.000124319475657908
-3.19417984347632e-08
0.000124353069388914
-3.35937310058499e-08
0.000124414668333955
-6.15989450401458e-08
0.000124426537238563
-1.18689046093957e-08
0.000124467940639475
-4.14034009120768e-08
0.00012453896652794
-7.10258884639529e-08
0.000124610329755401
-7.13632274602953e-08
0.000124645084596118
-3.47548407178618e-08
0.0001249174801324
-2.72395536282137e-07
0.0001246453097702
2.72170362200019e-07
-4.20453047782016e-07
0.00036575911739794
4.3909561360331e-06
0.000358676642991839
1.14319601583856e-05
0.000348253812481098
1.59960443017257e-05
0.000334665181098542
2.02341102813361e-05
0.000319180496165948
2.26018493433137e-05
0.000304530085616178
2.05714010464254e-05
0.000292094487634424
1.68427656623572e-05
0.000282494603886769
1.25145967563384e-05
0.000275883586262827
8.08233637636286e-06
0.000272287322232186
3.69262436085295e-06
0.000271828347740957
-9.41110202982683e-07
0.00027386972239078
-4.35651190569589e-06
0.000278975903814023
-8.95186854702763e-06
0.000286081763820655
-1.16928338937244e-05
0.000294956874774938
-1.419597580694e-05
0.000305573451450913
-1.67756305918872e-05
0.000317644473167902
-1.88932338748001e-05
0.000330353992650858
-1.97058558309553e-05
0.000343494523238205
-2.02122674352561e-05
0.000357696325018459
-2.20791510132065e-05
0.000371125511996334
-2.04281377892065e-05
0.000385628244580276
-2.24913012067986e-05
0.000399992399529403
-2.19359902583499e-05
0.000416933426053177
-2.64266454410607e-05
0.000432205100725605
-2.28032738738256e-05
0.000448204372749158
-2.40080275309648e-05
0.000462750934734828
-2.11805113539506e-05
0.000474731424436159
-1.65521615728893e-05
0.000484213706607002
-1.2443818465153e-05
0.000490908428678808
-7.96741706232939e-06
0.000493868712569559
-1.93330725038648e-06
0.000492680065580347
4.45310145643572e-06
0.000485528294729904
1.35687447285327e-05
0.000471842226898612
2.31682395064585e-05
0.000452582548005948
3.0576082918095e-05
0.000426412217253728
4.04011049851309e-05
0.000397420450290752
4.3173983976614e-05
0.000368314531559713
4.23293355299254e-05
0.000342781945080232
3.62236335724645e-05
0.000320383461496661
3.1554397496933e-05
0.000300343909268069
2.82497306768419e-05
0.000282619845428105
2.48488036598256e-05
0.000266538822808129
2.25300773948804e-05
0.00025153030513133
2.10219951495776e-05
0.000237136578887452
2.01891296504269e-05
0.000223345444510968
1.92211541392609e-05
0.000209171851226645
1.9896970991981e-05
0.000195443157726116
1.90380408275745e-05
0.000180788448693735
2.04383543003901e-05
0.00016521442415985
2.16188174228102e-05
0.000148735952521412
2.28384824129352e-05
0.000132351800240691
2.23652704094886e-05
0.000114680963444404
2.42590315578885e-05
9.706842301439e-05
2.38551076001467e-05
7.95561936171382e-05
2.37065430801032e-05
6.38971555912582e-05
2.07894994731736e-05
4.87389453688688e-05
2.0237661628418e-05
3.53496006224431e-05
1.7648042749534e-05
2.35798403652169e-05
1.55086665235949e-05
1.39975919210559e-05
1.2418549842375e-05
5.169832309184e-06
1.15678158556396e-05
-1.92900499824543e-06
9.27646221297203e-06
-6.90997311543264e-06
6.37757887186035e-06
-1.10651375706248e-05
5.38661879578275e-06
-1.41706774619904e-05
4.08630939873221e-06
-1.54846543534226e-05
1.67459319462864e-06
-1.57022826279341e-05
2.23046090062432e-07
-1.51034073625924e-05
-6.77967858639612e-07
-1.24865784893934e-05
-3.53903298223611e-06
-9.22096203000389e-06
-4.27109002059969e-06
-4.5420609799705e-06
-6.24711176657524e-06
1.18497125331556e-06
-7.61433171160771e-06
8.41027130054181e-06
-9.69194137484467e-06
1.70168024381969e-05
-1.16217406211926e-05
2.68514365909442e-05
-1.33042740868903e-05
3.82077389984563e-05
-1.55020825023784e-05
5.07991396173563e-05
-1.72141992423025e-05
6.49890775277787e-05
-1.95679146954699e-05
8.05739845763348e-05
-2.15546658381497e-05
9.76920405664392e-05
-2.38628503783002e-05
0.000115946194679247
-2.54685141397389e-05
0.000135829585272591
-2.79985747696314e-05
0.000157034127799042
-2.99187551807321e-05
0.000179882066863199
-3.25214736205875e-05
0.000204608641466544
-3.53147279296981e-05
0.000232452520963756
-4.05228171072957e-05
0.000257235471685057
-3.4947197429489e-05
0.000275404573407243
-2.39368339297605e-05
0.000290461800653208
-2.01452899128458e-05
0.000302992456101879
-1.66756347479344e-05
0.000313773506257096
-1.42668327148276e-05
0.000323057018013199
-1.22049240451123e-05
0.000331134564246125
-1.05966715919117e-05
0.000338087911691194
-9.0419495142935e-06
0.000344138142546994
-7.84910191461584e-06
0.00034934914886594
-6.70744556850132e-06
0.000353880227241193
-5.81259987530674e-06
0.000357826731636107
-5.04777844688664e-06
0.000361218817777578
-4.2941955071171e-06
0.000364179002829065
-3.74235512737139e-06
0.00036675184197057
-3.23911939455183e-06
0.000368964565805044
-2.75477113501706e-06
0.000370921258968212
-2.44745697714083e-06
0.000372624135433728
-2.11411720209425e-06
0.000374102175586264
-1.82045316530722e-06
0.000375389637590667
-1.57882879845645e-06
0.000376523511577146
-1.3897721265135e-06
0.000377522382289906
-1.22137260096325e-06
0.000378402081935496
-1.06893021363308e-06
0.000379182447203023
-9.52255803821949e-07
0.000379832946396196
-7.63812915260844e-07
0.000380451389242153
-7.61762137903217e-07
0.00038097757162597
-6.25652072295126e-07
0.000381455447176813
-5.7573127122201e-07
0.000381859355527194
-4.73570243329623e-07
0.000382234863641912
-4.4900368910094e-07
0.000382604257805339
-4.6361826197007e-07
0.000382886919883882
-3.17466032094827e-07
0.000383159245984506
-3.27269859943466e-07
0.000383405076261521
-2.9525853174977e-07
0.000383630516716464
-2.71595164378385e-07
0.000383837524822575
-2.47291732008032e-07
0.000384031059883693
-2.40848909381143e-07
0.000384169505590051
-1.41083340834201e-07
0.000384374854730942
-2.87701085096578e-07
0.000384478997516551
-9.28126486357009e-08
0.000384637857400024
-2.12678780528387e-07
0.000384770246486809
-1.64553276363025e-07
0.000384897272948886
-1.57552248874485e-07
0.000385016964195306
-1.51633044855434e-07
0.000385138672181366
-1.55301717065091e-07
0.000385288293337832
-2.11220101505676e-07
0.00038538393231121
-1.07507877988286e-07
0.000385502777151186
-1.602482408885e-07
0.000385667312424669
-2.35561161946514e-07
0.000385825185201132
-2.29236003921639e-07
0.000385995389864454
-2.04959504041354e-07
0.000386375597263954
-6.52602935782654e-07
0.000386248826364148
3.98941262006983e-07
-9.58625788334889e-07
0.00058430792097256
6.85259793796403e-06
0.000577710330235167
1.80295508957819e-05
0.000567165639968414
2.65407345684797e-05
0.000552515974240712
3.48837760090375e-05
0.000534792704060768
4.03251195232588e-05
0.000516493728267734
3.8870376839463e-05
0.000499420440246373
3.39160536837244e-05
0.000484777142468723
2.7157894533989e-05
0.000473183426119161
1.96760527259275e-05
0.000464983717528834
1.18923329511743e-05
0.000460374468733935
3.66813859191126e-06
0.000458906809234553
-2.88885240631997e-06
0.000461014548731757
-1.10596080442372e-05
0.000465892431795593
-1.65707169575665e-05
0.000473238585843383
-2.15421298547295e-05
0.000482910140096556
-2.64471848450569e-05
0.000494621031420602
-3.06041251988465e-05
0.000507606294422684
-3.26911188330413e-05
0.000521555594123021
-3.41615671355874e-05
0.000536846728097644
-3.73702849878235e-05
0.000552038488795388
-3.56198984869463e-05
0.000568404132553959
-3.88569449653712e-05
0.000585117788227253
-3.86496459316439e-05
0.000604513897257863
-4.58227544716733e-05
0.000623440977373889
-4.17303539898524e-05
0.000643607646693853
-4.41746968509288e-05
0.000663277266761034
-4.08501314211317e-05
0.000681237008496752
-3.45119033086054e-05
0.000697098172629823
-2.83049825982228e-05
0.000710324137149578
-2.11933815820871e-05
0.000719829700845781
-1.14388709465878e-05
0.000724840614289979
-5.57811987764585e-07
0.000723215016783198
1.51943422353057e-05
0.000713725414233605
3.26578420560502e-05
0.000696529913668476
4.77715834832134e-05
0.000670061476841703
6.68695418119058e-05
0.000637695302915251
7.55401579030603e-05
0.000602600170677495
7.74244677676687e-05
0.000569388888972083
6.94349152778889e-05
0.00053896192057462
6.19813658943872e-05
0.000511233108144108
5.59785431073671e-05
0.00048625527092467
4.98266408792345e-05
0.000463437734059674
4.53476142598813e-05
0.000442141644162743
4.23180850465105e-05
0.000421824509075427
4.05062647377297e-05
0.000402256921338871
3.87887418757868e-05
0.000382493266802829
3.96606255280387e-05
0.00036303408248909
3.8497225141295e-05
0.00034258061011969
4.0891826669795e-05
0.000320819236634229
4.33801909082611e-05
0.000297737828825543
4.59198902216231e-05
0.000274113453967039
4.5989645268009e-05
0.000248845404854429
4.95270806705015e-05
0.000222967739450272
4.97327730043031e-05
0.000196970613392284
4.97036691381019e-05
0.000172607251022533
4.51528618429092e-05
0.000149084173778057
4.37607388729009e-05
0.000127588530707748
3.91436858198417e-05
0.000108430602973276
3.46665942580556e-05
9.21222212356669e-05
2.87269315799827e-05
7.74035427376143e-05
2.6286494353703e-05
6.52744092302617e-05
2.14055957203125e-05
5.61753924083099e-05
1.54765956938116e-05
4.87748224250831e-05
1.2787188779004e-05
4.32303395061662e-05
9.63079231765288e-06
4.03353926087787e-05
4.56954009201972e-06
3.92237558003929e-05
1.33468289845408e-06
3.96963031833297e-05
-1.15051524157295e-06
4.27448325073503e-05
-6.58756230625499e-06
4.71481263609026e-05
-8.6743838741566e-06
5.33728023653531e-05
-1.24717877710223e-05
6.11625916501116e-05
-1.54041209963647e-05
7.08604764018704e-05
-1.93898261266041e-05
8.23381419431748e-05
-2.30994061624973e-05
9.54301857970674e-05
-2.63963179407838e-05
0.000110296168390562
-3.0368065095874e-05
0.000126730450266477
-3.3648481118217e-05
0.0001449491431444
-3.77866075733938e-05
0.000164842526227612
-4.14480489213618e-05
0.000186433721880792
-4.545404603148e-05
0.000209436071518254
-4.8470863777201e-05
0.000234139056884413
-5.27015601357911e-05
0.000260404863666874
-5.61845619631921e-05
0.000288375897515169
-6.04925074688828e-05
0.00031834798324388
-6.52868136584096e-05
0.000351298358256993
-7.34731921204091e-05
0.000382634032778725
-6.62828719512204e-05
0.000408657032683822
-4.99598338348578e-05
0.000430987904547055
-4.24761617760788e-05
0.000450292761873346
-3.59804920742272e-05
0.000467276276601972
-3.12503474434537e-05
0.000482264732437332
-2.71933798804727e-05
0.000495571998499577
-2.39039376541554e-05
0.000507349715002672
-2.08196660173889e-05
0.000517818994604916
-1.83183815168595e-05
0.000527092528238857
-1.59809792024424e-05
0.000535336808332678
-1.40568799691276e-05
0.000542676087405006
-1.23870575192154e-05
0.000549179647594712
-1.07977556968233e-05
0.000554973096060424
-9.53580359308292e-06
0.000560130798023135
-8.39682135726354e-06
0.000564707153954043
-7.33112706592444e-06
0.000568807175413594
-6.54747843669195e-06
0.00057246742126823
-5.77436305673016e-06
0.000575733702221228
-5.08673411830664e-06
0.000578652021342322
-4.49714791955006e-06
0.000581270998464066
-4.00874924825767e-06
0.000583624812109221
-3.57518624611748e-06
0.000585743597195065
-3.18771529947696e-06
0.000587656548662738
-2.86520727149535e-06
0.000589354018180751
-2.46128243327391e-06
0.000590916294350715
-2.32403830786714e-06
0.00059231695500526
-2.02631272684003e-06
0.000593595409924849
-1.85418619081093e-06
0.000594740733970188
-1.61889428866865e-06
0.000595792904967806
-1.50117468671828e-06
0.000596779420603296
-1.45013389746077e-06
0.000597649337602189
-1.18738303098738e-06
0.000598456627927376
-1.13456018513089e-06
0.00059919748163134
-1.03611223571335e-06
0.000599881561625709
-9.55675158748238e-07
0.00060051554477034
-8.8127487663927e-07
0.000601105293723133
-8.30597862173267e-07
0.00060162309503615
-6.58884653851351e-07
0.00060215970500107
-8.24311050016646e-07
0.000602600822854741
-5.33930502307032e-07
0.000603054664465117
-6.66520390904075e-07
0.000603470533051067
-5.80421862312971e-07
0.000603864920800607
-5.51939998414217e-07
0.000604236444001134
-5.23156245382978e-07
0.000604594384458633
-5.13242174563455e-07
0.000604961428979946
-5.78264622818646e-07
0.000605279800680063
-4.25879578106093e-07
0.000605599911038182
-4.80358599006716e-07
0.000605948983509194
-5.846336329591e-07
0.000606287343657409
-5.6759615213516e-07
0.000606642225440261
-5.59841286894125e-07
0.000607144569211615
-1.15494670713695e-06
0.000607317979741432
2.25530732189507e-07
-1.53513752412573e-06
0.000746008102726421
8.7361016914051e-06
0.000740554223011525
2.34834306106757e-05
0.000731296834595406
3.57981229845997e-05
0.000717836348488699
4.83442621157417e-05
0.00070073878613265
5.74226818793082e-05
0.000681917346784785
5.76918161873235e-05
0.00066307828078462
5.27551196838866e-05
0.00064562545382268
4.46107214959269e-05
0.000630512657103447
3.47888494451568e-05
0.000618402131391358
2.40028586632651e-05
0.000609727532713473
1.23427372697974e-05
0.000604298698043259
2.53998226389987e-06
0.000602518559668132
-9.27946966911025e-06
0.000603846627255903
-1.78987845453339e-05
0.000608030349961455
-2.57258525602812e-05
0.000614912625494928
-3.33294603785348e-05
0.000624243046849785
-3.99345465537061e-05
0.000635361020126614
-4.3809092109873e-05
0.000647914198078386
-4.67147450873629e-05
0.000662126904718874
-5.15829916283086e-05
0.000676856105084282
-5.03490988523536e-05
0.000692973310731161
-5.49741506122517e-05
0.000709891134105609
-5.55674693060907e-05
0.000729546753987561
-6.54783743536223e-05
0.000749692351651051
-6.18759516533435e-05
0.000771556398172927
-6.60387433728046e-05
0.000793902871735788
-6.3196604983994e-05
0.000815602897855712
-5.6211929428528e-05
0.00083608317727023
-4.87852620127369e-05
0.000854718031978587
-3.98282362904422e-05
0.000870379053621484
-2.70998925894909e-05
0.000882189085236363
-1.23678436026467e-05
0.00088800637646849
9.37705100318639e-06
0.000886114431310468
3.45497872140623e-05
0.000876029073450417
5.78569413432618e-05
0.000855738030205966
8.71605850563506e-05
0.000827378960630053
0.000103899227478963
0.000793500410579997
0.00011130301781773
0.000758630342432299
0.000104304983425593
0.000724644435985894
9.59672723407898e-05
0.00069238357292585
8.82394061674091e-05
0.000662427062430564
7.97831513745033e-05
0.000634593030256139
7.31816464342955e-05
0.000608457410147424
6.84537051552153e-05
0.000583553865718955
6.54098091662e-05
0.00055959609077458
6.27465168201632e-05
0.0005357076647275
6.35490515751337e-05
0.000512137823992786
6.20670658760244e-05
0.00048772925967938
6.53003909831937e-05
0.000461966807698115
6.9142642889534e-05
0.000434700363213004
7.31863347067382e-05
0.000406473546966819
7.42164615142057e-05
0.000376430169110235
7.95704585270827e-05
0.000345283900739008
8.0879041375523e-05
0.000313659845139009
8.13277247380936e-05
0.000283207413013124
7.56052939688036e-05
0.000253662945754459
7.33052061315651e-05
0.000226093267197203
6.67133643770899e-05
0.000201100297041084
5.96595644141788e-05
0.000179249754479131
5.05774741419394e-05
0.000159598798520886
4.59374503119417e-05
0.000142945024239721
3.80593700014778e-05
0.00012979739129444
2.86242286390886e-05
0.00011905007177628
2.35345082971701e-05
0.000110669409106618
1.80114549873095e-05
0.000105360346145121
9.8786030535141e-06
0.000102359043816992
4.33598522658234e-06
0.000101382644753929
-1.74116178509828e-07
0.000103185245217254
-8.39016276958386e-06
0.000106895692681401
-1.23848313383063e-05
0.000112670493496011
-1.82465885856348e-05
0.000120339085262138
-2.30727127624926e-05
0.000130126190798929
-2.91769316633954e-05
0.000141946767855511
-3.49199832190785e-05
0.000155637664474992
-4.00872145602655e-05
0.00017127016158734
-4.6000562208222e-05
0.00018869514927857
-5.10734688094474e-05
0.00020802978964312
-5.71212479379441e-05
0.000229222067564307
-6.26403268425479e-05
0.000252245167232236
-6.84771456994094e-05
0.000276881718824459
-7.31074153694239e-05
0.000303289808861577
-7.91096501729095e-05
0.00033141843456201
-8.43131876636247e-05
0.000361310725783737
-9.03847986906096e-05
0.000393240641951202
-9.72167298258752e-05
0.000427981632149781
-0.000108214182318988
0.00046200997599588
-0.00010031121579732
0.00049184378168916
-7.97936395281374e-05
0.000518123272329445
-6.87556524163641e-05
0.000541420437524312
-5.92776572690942e-05
0.000562254757813773
-5.20846677329151e-05
0.000580942360931319
-4.58809829980193e-05
0.000597780277264318
-4.07418539871542e-05
0.000612941688576196
-3.59810773292674e-05
0.000626631172098654
-3.20078650393175e-05
0.000638977368674819
-2.83271757786077e-05
0.000650135937624657
-2.52154489189656e-05
0.00066023511553383
-2.24862354283886e-05
0.000669357194285672
-1.99198344486649e-05
0.000677619329355181
-1.77979386625919e-05
0.000685105207994829
-1.58826999969114e-05
0.000691878015621803
-1.41039346928987e-05
0.00069803557738063
-1.27050401955193e-05
0.000703629602802056
-1.13683884781557e-05
0.000708712062309501
-1.01691936257514e-05
0.000713333649549353
-9.11873515940196e-06
0.000717546802364614
-8.22190206351914e-06
0.000721392568478998
-7.42095236050045e-06
0.00072490781262065
-6.7029594411294e-06
0.00072812767317805
-6.08506782889499e-06
0.000731055991612687
-5.38960086791126e-06
0.000733760731140477
-5.02877783565656e-06
0.00073623629984048
-4.5018814268434e-06
0.000738519310756523
-4.13719710685441e-06
0.000740610373717835
-3.70995724998013e-06
0.000742544765484263
-3.4355664531471e-06
0.000744353093629306
-3.25846204250329e-06
0.000746005256925587
-2.83954632726893e-06
0.000747542810264125
-2.67211352366848e-06
0.000748970370705473
-2.46367267706157e-06
0.000750299600836309
-2.28490528958388e-06
0.000751540431345191
-2.12210538552112e-06
0.000752701980672561
-1.99214718954291e-06
0.000753765435751628
-1.72233973291816e-06
0.000754801999597013
-1.86087489540178e-06
0.000755733015899093
-1.46494680438761e-06
0.000756636370859402
-1.5698753512134e-06
0.000757481780382774
-1.42583138568473e-06
0.000758282588249435
-1.35274786507476e-06
0.000759039833857501
-1.28040185344949e-06
0.000759762014010542
-1.23542232760418e-06
0.000760470011534051
-1.28626214632786e-06
0.000761123553771649
-1.07942181570384e-06
0.000761756571984922
-1.11337681228023e-06
0.000762396492791672
-1.22455443970886e-06
0.000763014167987184
-1.18527134764578e-06
0.000763635648633769
-1.18132193348038e-06
0.000764353458513834
-1.87275658720178e-06
0.000764874262073261
-2.95272827237578e-07
-2.23993209762256e-06
0.000875179694655731
1.02618718381828e-05
0.000870537917690883
2.8125207575527e-05
0.000862395905895542
4.39401347799387e-05
0.000850266601715713
6.04735662955707e-05
0.000834401350391698
7.32879332033252e-05
0.000816210652270133
7.58825143088916e-05
0.000797114318942744
7.18514530112773e-05
0.000778433351521475
6.32916889171985e-05
0.000761221417307144
5.20007836594931e-05
0.000746326569496009
3.88977064744011e-05
0.000734394765066188
2.42745416996167e-05
0.000725497150946915
1.14375963831733e-05
0.000720110215761048
-3.89253448324055e-06
0.000717905360696405
-1.56939294806948e-05
0.000718720028609882
-2.65405204737571e-05
0.000722441799042215
-3.705123081087e-05
0.000728870064537266
-4.63628120487607e-05
0.00073743117874968
-5.2370206322282e-05
0.00074777928302462
-5.70628493622997e-05
0.000760048368890431
-6.38520774941198e-05
0.000773289849228646
-6.3590579190569e-05
0.000788130901416321
-6.98152027999256e-05
0.000804154575191578
-7.15911430813481e-05
0.00082297280333896
-8.42966025010048e-05
0.000842908545965931
-8.18116942803147e-05
0.000864864215835615
-8.7994413242488e-05
0.000887947738572982
-8.62801277213617e-05
0.000911131105859993
-7.93952967155399e-05
0.000933812837151458
-7.14669933042019e-05
0.000955400022441505
-6.14154215804884e-05
0.00097485204693757
-4.65519170855564e-05
0.000991309379677459
-2.88251763425228e-05
0.00100286585469588
-2.17942401523892e-06
0.00100774263083176
2.96730110781926e-05
0.00100516225974403
6.04373124309989e-05
0.000992851580643911
9.94712641564741e-05
0.000971804714567555
0.000124946093555303
0.000943531614522181
0.000139576117863107
0.000911732478896461
0.00013610411905131
0.000878463393578783
0.000129236357658461
0.000845115782686366
0.000121587017059801
0.000812825084470165
0.000112073849590727
0.000781952980985531
0.000104053749918928
0.000752476202307899
9.79304838328473e-05
0.000724164076681326
9.37219347927595e-05
0.0006968306827688
9.00799107326967e-05
0.00066970866084778
9.0671073496138e-05
0.000642930170135508
8.88455565882899e-05
0.000615448852441308
9.27817086773763e-05
0.000586658039366687
9.79334559641611e-05
0.000556272674599721
0.000103571699473697
0.000524648926059257
0.000105840210054666
0.000491045254167428
0.000113174130418909
0.000455964316341105
0.000115959979201845
0.000420008934389282
0.000117283106689912
0.000384734970257931
0.000110879258100158
0.000350221801026589
0.0001078183753629
0.000317519737724623
9.94154276790621e-05
0.000287407941928868
8.97713602099336e-05
0.000260577227646589
7.74081884242155e-05
0.000236364447014699
7.01502309438345e-05
0.000215428707497699
5.89951095184824e-05
0.000198337537234682
4.57153989021058e-05
0.000184206621747485
3.76654237843619e-05
0.000172871866039343
2.93462106954523e-05
0.000164941111400091
1.78093576927626e-05
0.000159775725701181
9.50137092549048e-06
0.00015700914002261
2.59246950006116e-06
0.000157234714115804
-8.61573686277732e-06
0.000159792643453717
-1.49427606762188e-05
0.000164679109668752
-2.31330548006686e-05
0.000171741729267798
-3.01353323615376e-05
0.000181130145009154
-3.85653474047521e-05
0.000192779427949503
-4.65692661594274e-05
0.000206525613177232
-5.38333997879943e-05
0.0002223887645281
-6.18637135590892e-05
0.000240237499314387
-6.89222035957347e-05
0.000260134795376796
-7.70185440003531e-05
0.000282045393843111
-8.45509253088627e-05
0.000305917969138027
-9.23497209943257e-05
0.000331563797367975
-9.87532435993718e-05
0.000359073273779507
-0.000106619126584442
0.000388424363970055
-0.000113664277854172
0.00041961350433182
-0.000121573939052374
0.000452884524093567
-0.000130487749587622
0.000488855096145472
-0.000144184754370893
0.000524508234716135
-0.000135964354367983
0.000556570561332181
-0.000111855966144183
0.000585258954988583
-9.74440460727668e-05
0.000611057150743686
-8.5075853024197e-05
0.000634355518979319
-7.53830359685483e-05
0.000655447419583059
-6.69728836017588e-05
0.000674612677013766
-5.99071114178616e-05
0.000692032654279214
-5.34010545947159e-05
0.000707902577683166
-4.78777884432687e-05
0.000722359372585731
-4.27839706811734e-05
0.000735552667613529
-3.84087439467631e-05
0.000747611281570571
-3.45448493854316e-05
0.0007586235391173
-3.09320919953931e-05
0.0007687009392576
-2.78753388028928e-05
0.000777930302589741
-2.51120633290521e-05
0.000786378237257491
-2.25518693606488e-05
0.000794136577953898
-2.04633808919264e-05
0.000801263094923378
-1.84949054476359e-05
0.000807811236175827
-1.67173348782002e-05
0.00081383302943923
-1.51405284228046e-05
0.000819381508205609
-1.37703808298987e-05
0.000824499827256081
-1.25392714109716e-05
0.000829227191463231
-1.14303236482797e-05
0.000833600543128904
-1.04584194945682e-05
0.000837631408220976
-9.420465959983e-06
0.000841379502197174
-8.77687181185499e-06
0.000844850460597835
-7.97283982750408e-06
0.000848078229625561
-7.36496613458005e-06
0.000851070256988397
-6.70198461281611e-06
0.00085385901689199
-6.22432635674055e-06
0.000856475675581886
-5.87512073239929e-06
0.000858902373119687
-5.26624386506922e-06
0.000861173812635393
-4.94355303937503e-06
0.00086329989273507
-4.58975277673786e-06
0.000865293113602116
-4.27812615663023e-06
0.000867165373659627
-3.99436544303217e-06
0.000868927558102861
-3.75433163277664e-06
0.000870567367545366
-3.36214917542361e-06
0.000872143608516446
-3.43711586648195e-06
0.000873599539440385
-2.92087772832676e-06
0.000874995132885358
-2.96546879618581e-06
0.000876312587702556
-2.7432862028825e-06