/*--------------------------------*- C++ -*----------------------------------*\
| =========                 |                                                 |
| \\      /  F ield         | OpenFOAM: The Open Source CFD Toolbox           |
|  \\    /   O peration     | Version:  v2006                                 |
|   \\  /    A nd           | Website:  www.openfoam.com                      |
|    \\/     M anipulation  |                                                 |
\*---------------------------------------------------------------------------*/
FoamFile
{
    version     2.0;
    format      ascii;
    class       volSymmTensorField;
    location    "0";
    object      turbulenceProperties:R;
}
// * * * * * * * * * * * * * * * * * * * * * * * * * * * * * * * * * * * * * //

dimensions      [0 2 -2 0 0 0 0];


internalField   nonuniform List<symmTensor> 
14000
(
(0.000175745023389693 -1.20165019646703e-05 -0 0.00017571523300916 -3.33953694739883e-27 0.000175730071124836)
(0.000168199326487575 -1.13236219625584e-05 -0 0.000168137457470274 3.20434250158518e-27 0.000168170858750161)
(0.000155106757641754 -1.01334584376721e-05 -0 0.000155030329345142 -0 0.000155069249349735)
(0.000140039606359947 -8.7847410450861e-06 -0 0.000139957793805192 -0 0.000139999679516857)
(0.000123708679704263 -7.37049951211126e-06 2.84969028286324e-28 0.000123606181286486 -3.27277492267408e-25 0.000123659023924017)
(0.000109468906733284 -6.17414026020398e-06 4.12120392057497e-25 0.000109310777292317 2.27929749241007e-27 0.000109391245552411)
(9.9287885689754e-05 -5.33040641946151e-06 -9.98857815301006e-25 9.90437882289789e-05 5.93130877725927e-25 9.91677824750371e-05)
(9.26048311508758e-05 -4.7741800321329e-06 -3.47703349356203e-25 9.2246098085764e-05 1.52263799936462e-26 9.24279710313881e-05)
(8.89316569667736e-05 -4.44941679534559e-06 -1.46600673709521e-24 8.84263472191884e-05 -3.01709054684085e-26 8.86820203661259e-05)
(8.77813527172138e-05 -4.30663513476537e-06 7.91866033543723e-26 8.70881849234176e-05 -1.84288565219212e-24 8.74385985565765e-05)
(8.95724282779763e-05 -4.36414618249359e-06 4.46091965101775e-24 8.86221204236569e-05 6.26071231954522e-26 8.91014115393509e-05)
(9.35518590428553e-05 -4.56606593880633e-06 -3.15921705925697e-24 9.22616087221732e-05 4.42281790234474e-23 9.29119418107014e-05)
(0.000100688541174547 -4.9720512310108e-06 -3.28392109362323e-24 9.89122842336796e-05 -8.22636504699778e-26 9.9805539289869e-05)
(0.000111075994133826 -5.59055623725891e-06 6.98645545798909e-24 0.00010861730058121 1.84108390342828e-25 0.000109852220238028)
(0.000124183952303327 -6.38712602211607e-06 -2.22519752726121e-23 0.000120794352578775 1.10939896650767e-22 0.000122494258700871)
(0.000141011297323527 -7.42501141244455e-06 8.3035442782996e-24 0.000136331712496123 -7.2854449593347e-24 0.000138675041600113)
(0.000162528528608561 -8.76826728516645e-06 3.05986944131218e-23 0.000156053860486903 -6.82747613523256e-24 0.000159291365666022)
(0.000188972589562561 -1.04292825830005e-05 5.67335325167202e-23 0.000180067770509473 -2.66589014528174e-22 0.000184514087010936)
(0.000219089694184036 -1.22918290964542e-05 2.72681382851343e-23 0.000207087256997017 -1.45996927664621e-22 0.000213074305173116)
(0.000257980317125353 -1.46941670150994e-05 1.08192417574447e-22 0.000241686475457205 -3.01527220539052e-22 0.000249800706507068)
(0.00030185174042908 -1.73394377677623e-05 -6.50735357824989e-23 0.000280277461532811 2.99064542707432e-22 0.00029101402293564)
(0.000356187740626706 -2.05567109798827e-05 -7.41190287961066e-24 0.000327619528259378 -5.02147913827408e-26 0.00034181489474762)
(0.000419394119114599 -2.42089873190592e-05 -7.64629381502067e-23 0.000382216836290393 2.51721756774072e-22 0.000400677699437965)
(0.000504661215411911 -2.91923586608853e-05 -9.24127794285422e-23 0.000455349093939114 1.99347879829779e-22 0.000479793793218507)
(0.000603932910026535 -3.5119593275803e-05 -1.52970066485784e-23 0.00054000314466764 3.73885211648059e-26 0.000571671225236273)
(0.000716641691110331 -4.19187947163862e-05 -2.07945580986212e-24 0.000635547609867127 5.30164112682192e-24 0.000675673397405241)
(0.00084652055195799 -5.02737634433363e-05 2.64187453100093e-23 0.000745621442479906 -5.9899690267577e-25 0.000795508833089564)
(0.000977583907478404 -5.93717750030162e-05 -2.45624269898419e-22 0.000857215484767126 4.83703232287212e-22 0.00091670162141867)
(0.00110212450117684 -6.8904087608891e-05 -6.12150409249491e-22 0.000964635320244203 -2.33343701044163e-22 0.00103256498577767)
(0.00121816775558412 -7.90055373578685e-05 -8.60206338241601e-23 0.0010670220189994 -1.40932954398014e-21 0.00114168876026305)
(0.00131152662328279 -8.86886467757048e-05 1.47786086168402e-22 0.00115318696478405 -7.63128566616691e-24 0.00123141441368814)
(0.00137120381353567 -9.67435762171045e-05 7.01388454788727e-22 0.00121404912125502 2.36160980468982e-22 0.00129170521812237)
(0.0013837568887736 -0.000101454069754814 6.61304688728378e-22 0.00123781417837276 -2.2930738316163e-21 0.00130995614471871)
(0.00133124912426439 -0.000100077330100391 -0 0.00120707304683166 -0 0.00126849441589021)
(0.0012344616756871 -9.36573855274018e-05 -0 0.00113660259639285 -0 0.00118502654196683)
(0.00108961273655872 -8.16330867759376e-05 -2.38867063533482e-26 0.00102013151537524 1.88695261612855e-27 0.00105454215511504)
(0.000922626961210444 -6.66105709006778e-05 3.61390879465742e-26 0.000877814411924759 -5.46191044960475e-25 0.000900020263408917)
(0.000767299905659634 -5.24724635265379e-05 3.78572456304935e-26 0.000740524022852193 -1.26550669023188e-26 0.000753800431554252)
(0.000643233316600916 -4.138092851678e-05 -1.91669366011153e-27 0.000628040058464715 3.90596573546781e-25 0.000635571247168835)
(0.000549772841246449 -3.33091232032696e-05 -2.2994420649864e-26 0.000541865497342295 1.85542508830463e-27 0.000545779685750941)
(0.000470995680435353 -2.6823131606236e-05 -1.0020172485955e-23 0.000467839202299615 -5.3815194036298e-25 0.000469393222053324)
(0.000405050273482826 -2.16626273521819e-05 -2.41408218170609e-24 0.000404898085187108 2.36681296653529e-24 0.000404957766440806)
(0.000349994208379147 -1.75789659824301e-05 -5.11696798318571e-24 0.0003516916975124 -5.43814595739444e-23 0.000350831016068149)
(0.000302214399443284 -1.42379627338411e-05 -7.22405266009314e-24 0.000304978247120603 -9.38826687094722e-23 0.000303586207182393)
(0.000258813632525669 -1.13906392400676e-05 3.70519207496597e-23 0.00026208023487899 1.57486913721243e-22 0.000260437947965835)
(0.000221407368607394 -9.08916378609705e-06 -1.10514481643702e-23 0.00022480652007757 -1.57074485881775e-23 0.00022309762705377)
(0.000186277617375665 -7.07880903613784e-06 -9.01867631088703e-24 0.00018952136222932 -1.11824242487977e-22 0.000187890742471089)
(0.000155497759019945 -5.44443073230776e-06 1.71764457894691e-23 0.000158421171827514 -2.58278127215253e-23 0.000156950119931511)
(0.000128003645786643 -4.09702264877564e-06 -5.74138097659287e-24 0.000130516472076914 4.50397176272248e-25 0.000129251293455646)
(0.000102452679927288 -2.95495244775792e-06 4.36319239624399e-24 0.000104481072256546 -3.36387060518943e-25 0.000103458262622216)
(7.93030644814084e-05 -2.02024313020383e-06 7.52567026353709e-24 8.0832236638348e-05 -1.3831114433485e-23 8.00600090290976e-05)
(6.08910458073276e-05 -1.35457113555133e-06 1.46887491633419e-23 6.20044006010445e-05 6.5478936149115e-23 6.14407384028442e-05)
(4.51964031149753e-05 -8.55364593029704e-07 -1.76576218720595e-23 4.59531693187473e-05 -5.5029437201801e-23 4.55691615235456e-05)
(3.26244202326134e-05 -5.08742966541587e-07 -9.35736486546676e-24 3.31040965004396e-05 -2.73651667149328e-23 3.28595514450151e-05)
(2.30547915158978e-05 -2.83919610561153e-07 9.51299137645411e-24 2.33379300936587e-05 3.13663725100084e-23 2.31928358117195e-05)
(1.66643058414404e-05 -1.56832591554787e-07 5.34934982635438e-25 1.6828345825607e-05 -3.31556492939315e-24 1.67435102829588e-05)
(1.25997015965965e-05 -8.52889669477203e-08 1.48792061506751e-24 1.26927088280544e-05 -8.77907346440727e-26 1.26440509460017e-05)
(1.3864407502512e-05 -6.02919813424299e-08 5.28145968859603e-24 1.39330267708914e-05 1.84700967706315e-23 1.38961985408176e-05)
(1.55751229733435e-05 -3.52024567134318e-08 4.77525319735856e-24 1.56176191191379e-05 3.36463020234217e-23 1.55935541235942e-05)
(1.70092717108566e-05 -9.8125946890733e-09 2.10438901779696e-24 1.70243172843463e-05 8.11422042710512e-24 1.701364735993e-05)
(1.80904975805812e-05 1.5566982248869e-08 -8.31557404720983e-24 1.80767844868178e-05 -3.66298747305523e-23 1.8080370397108e-05)
(1.93705535661008e-05 4.27632011396715e-08 1.15090752544272e-23 1.9326481288912e-05 3.76822863501788e-23 1.93450074536501e-05)
(1.99875943565027e-05 6.23218255081264e-08 -2.81657495642035e-24 1.99225989017117e-05 -9.18869934916567e-24 1.99515308021908e-05)
(2.02114859404277e-05 7.69554083950297e-08 -1.60535890652207e-24 2.01307866305604e-05 1.10372811285317e-25 2.01676513419805e-05)
(2.05417768064105e-05 9.14032374590473e-08 -4.03887004101475e-28 2.04466777526461e-05 4.25027142316864e-27 2.0490768537717e-05)
(2.05999071856909e-05 9.96134532856448e-08 1.73951388498135e-23 2.04991096555245e-05 6.33178505914195e-23 2.05461435363062e-05)
(2.01390711405559e-05 9.90298372115136e-08 -1.14423584519825e-24 2.00419013971983e-05 -3.34422298866969e-24 2.00873127047966e-05)
(1.98825778357592e-05 9.94776923114082e-08 3.38453801579366e-24 1.97881933720632e-05 1.31776232845666e-23 1.98324431755674e-05)
(1.93307373250844e-05 9.15452064323981e-08 8.22355783021615e-25 1.92488954866305e-05 9.29227003758029e-24 1.92870084444162e-05)
(1.85048725952134e-05 7.91530111827623e-08 1.11881247163079e-24 1.84380649888342e-05 4.4992933435202e-24 1.84690373001302e-05)
(1.77160032695015e-05 6.46800744869942e-08 2.46031508933327e-24 1.76657854210499e-05 6.82082688273835e-24 1.76886600700696e-05)
(1.67248469432036e-05 4.64913794490797e-08 1.18932669980476e-24 1.66927528724576e-05 7.34078997387599e-24 1.67069023241351e-05)
(1.57518679817015e-05 2.667246353722e-08 4.04312099211497e-27 1.5737723332762e-05 1.46733567866492e-26 1.57431631120639e-05)
(1.45977371612312e-05 3.93414600390005e-09 -2.01998989765018e-25 1.46013839034133e-05 2.65122534111416e-27 1.45982270908178e-05)
(1.34587762542001e-05 -1.84969552267449e-08 -3.18466963595412e-25 1.34773793412725e-05 -2.82182635622147e-24 1.34670371787602e-05)
(1.22851820553063e-05 -4.11630098681479e-08 5.71273618121291e-25 1.23163742173296e-05 1.9744129381654e-24 1.22999690576996e-05)
(1.11408227719192e-05 -6.2338317028992e-08 2.4088680105282e-25 1.11809877524673e-05 2.68498153432391e-24 1.11603507409255e-05)
(1.25641893774857e-05 -1.02720502598265e-07 -1.00235830913759e-25 1.26216707418531e-05 5.90169415294153e-27 1.25924531004968e-05)
(1.57808442939577e-05 -1.74685975870759e-07 -1.06538672126397e-26 1.58654817514127e-05 3.42325493383858e-27 1.58228268490533e-05)
(2.0024974409053e-05 -2.87001592832358e-07 4.32819763893513e-25 2.01439729000094e-05 -4.47694390371525e-26 2.00842576727897e-05)
(2.5304364497513e-05 -4.51461815532496e-07 1.01380505108438e-25 2.5461721024121e-05 -1.13347162592096e-26 2.53831655605405e-05)
(3.21595743063496e-05 -6.97671271309959e-07 1.60878130056061e-25 3.23580208916444e-05 1.48698283512755e-24 3.22591550761755e-05)
(4.07851643141071e-05 -1.05342888916839e-06 -1.73167735439324e-25 4.10193490761196e-05 1.22525865430384e-24 4.09032185429567e-05)
(5.19146762086607e-05 -1.57494382566607e-06 1.04567259673805e-24 5.21703576804452e-05 1.39476807873967e-24 5.20437292079332e-05)
(6.55468348521319e-05 -2.29688715662604e-06 1.79323458948159e-25 6.57879467535467e-05 -1.42511410225749e-25 6.56696999940418e-05)
(8.51894005948199e-05 -3.45416560421667e-06 -2.03789598134364e-25 8.53619337386753e-05 4.25763355034531e-26 8.52769094747708e-05)
(0.000107796171808008 -4.98393926801434e-06 -5.95390092091528e-26 0.000107883510053589 4.95558018333163e-26 0.000107841254418391)
(0.000122615535253869 -6.17060911491642e-06 4.3311447037798e-26 0.000122677868396623 -6.50638991382127e-26 0.000122649740372532)
(0.000132800114461358 -7.07768297857338e-06 9.77207568614975e-27 0.000132853004108546 -6.00361656013962e-28 0.000132827304039908)
(0.000142364525562182 -7.9514835925922e-06 -2.62242832333468e-26 0.000142412830541025 3.90956958934172e-26 0.000142390183175665)
(0.000150616130538417 -8.73902816651381e-06 2.66989577507313e-26 0.000150658864918549 -6.46563585005506e-26 0.00015063858509076)
(0.000157647499432874 -9.43760149612293e-06 -2.68883985295729e-26 0.00015768603531079 9.58084768650299e-26 0.000157667764814796)
(0.000163827800170589 -1.00692529178906e-05 1.39513958347482e-26 0.000163861147126086 -1.92061186348635e-26 0.000163845219112893)
(0.00016910336932175 -1.06253060973556e-05 -1.47215550868041e-26 0.000169133145680149 -1.10803938471073e-26 0.000169119034468531)
(0.000173621492544451 -1.1114212305274e-05 -2.49020872676125e-28 0.000173647154023652 2.47341085974432e-26 0.000173634887638848)
(0.000177465301476471 -1.15406073781771e-05 -1.76756598826169e-26 0.00017748816054817 -1.26261364293701e-26 0.000177477302279873)
(0.000180699630234966 -1.19083822701553e-05 -1.31893759215602e-27 0.000180719477552878 -1.01541653692771e-27 0.000180710038648193)
(0.000183517042686198 -1.22335666837442e-05 -1.62449937497143e-28 0.000183533800655538 -1.01186855335444e-27 0.000183525813940048)
(0.000185850620333885 -1.25101167971511e-05 -1.6228431062759e-27 0.000185865740957414 -1.08117972663378e-26 0.000185858598663877)
(0.000187791718940525 -1.27456347286985e-05 3.93056237161128e-26 0.000187804931959197 -2.26156745802966e-26 0.000187798661697706)
(0.000189483422792382 -1.29531073916168e-05 -1.78732869273853e-26 0.000189494979585958 2.94403063618226e-26 0.000189489492317986)
(0.000190838593644656 -1.31250316233685e-05 -9.8528703763965e-28 0.000190849479227099 -2.69511336060681e-27 0.000190844368658247)
(0.000191998494306753 -1.32742931253689e-05 -3.83656252378307e-31 0.000192007873082306 -1.05746447874632e-26 0.000192003419910225)
(0.000193011793792421 -1.34058649854305e-05 1.71016504173558e-28 0.000193020128375649 -5.83270895282735e-30 0.000193016216951868)
(0.000193830109900247 -1.35158284227484e-05 1.38209001868612e-28 0.000193837820254419 1.71301371226822e-27 0.000193834198049948)
(0.000194492083023691 -1.36078435412983e-05 -9.64187434616103e-27 0.000194499405528813 3.42566527784352e-28 0.000194495962505096)
(0.000195052620295857 -1.36872338469975e-05 -1.00971525858801e-26 0.000195059385631158 2.16206640659689e-27 0.000195056208680807)
(0.000195542003556737 -1.37572752287013e-05 -2.59996124173099e-28 0.000195548223721962 7.90871490009518e-30 0.000195545297436621)
(0.000195930140179684 -1.381546309311e-05 1.06845833043155e-28 0.000195935970983867 5.1112114027809e-27 0.000195933262402837)
(0.000196300055338144 -1.38698613127324e-05 -2.0007132522217e-28 0.000196305329438544 -3.61289831041638e-27 0.00019630281357004)
(0.000196509972391675 -1.39073800753409e-05 2.03183254924404e-26 0.000196515984377089 -5.0313779161982e-28 0.000196513214396413)
(0.000196736225681944 -1.39445329350161e-05 3.77371840809306e-28 0.000196741415531416 -1.59853837960388e-27 0.000196738909819151)
(0.000196935013221362 -1.39775647705086e-05 -2.17280404022101e-29 0.000196940380631113 6.95170761974873e-28 0.000196937889497405)
(0.00019708604976006 -1.40049170651241e-05 -4.83221672492033e-28 0.000197091106710423 6.38010772796648e-27 0.000197088692411303)
(0.000197193469611805 -1.4026950891873e-05 2.10782406266575e-26 0.000197198921837296 -7.89439594934439e-27 0.000197196339684751)
(0.000197246993907435 -1.40427054622953e-05 -4.09357783131059e-26 0.000197252388473887 6.15340461901576e-27 0.000197249846283602)
(0.000197405954010583 -1.40674085233929e-05 -1.05471935882046e-26 0.0001974103686841 -1.25319031309702e-27 0.000197408220500915)
(0.000197466356069259 -1.40822499053138e-05 -1.07785554589106e-26 0.000197471498838862 8.24675807666929e-27 0.000197469104802188)
(0.00019747901783713 -1.4091823396304e-05 1.02375987842061e-26 0.000197484098726457 -4.92770945319871e-27 0.000197481634945915)
(0.000197524446405275 -1.4103567282185e-05 2.37737610748512e-28 0.000197529567881247 -9.89576989328429e-29 0.000197527123921938)
(0.000197571796599622 -1.4114992814396e-05 -3.12351049678552e-28 0.000197576844564153 1.50068640565215e-27 0.000197574408658039)
(0.00019758188540417 -1.41223667023372e-05 3.15685479556274e-26 0.000197586953237975 -5.69309808366287e-27 0.000197584545640858)
(0.000197658147757037 -1.41356055734726e-05 -1.72023581346663e-28 0.000197662913290073 2.66317017282079e-27 0.000197660548367744)
(0.000197577609777571 -1.41335461555812e-05 -2.08507822215061e-26 0.00019758351513507 -1.09201787608262e-27 0.000197580772578817)
(0.000197674406738154 -1.41477526610407e-05 2.06671796481982e-26 0.000197678715895934 -2.48916215118296e-27 0.000197676489875235)
(0.000197663024389498 -1.41515122316168e-05 -1.04413860306421e-26 0.000197668799882702 2.14647960320779e-27 0.00019766612796425)
(0.000197647354728088 -1.41545868803144e-05 3.11276912270494e-26 0.000197652276529728 6.58677356935353e-28 0.000197649808247764)
(0.00019770354621656 -1.41639942472322e-05 7.82679867242545e-29 0.000197708557168509 9.67051877670965e-28 0.000197706151272477)
(0.000197718920943779 -1.41695119794252e-05 -1.06270949481395e-26 0.000197723803366566 -1.64947562583872e-27 0.000197721432674167)
(0.000197742347282228 -1.41755845454687e-05 -1.01567096429647e-26 0.00019774722093346 -7.67202957027494e-28 0.000197744834879316)
(0.000197745299890453 -1.41794348226443e-05 2.59420521048329e-26 0.000197750187172518 -5.28322898062975e-28 0.000197747843017509)
(0.00019785116433332 -1.41929204352455e-05 -5.19731135457868e-27 0.000197855229845189 6.9359846063131e-28 0.000197853193896265)
(0.000197881632513414 -1.41993030657252e-05 -4.67868485242617e-29 0.000197886484820599 3.27159088378031e-31 0.000197884174511499)
(0.000197883683248445 -1.4202893568696e-05 5.28900910316117e-27 0.00019788887212635 -2.73128376288612e-28 0.000197886299969262)
(0.000197961131738855 -1.42131443985327e-05 -5.23352884324961e-27 0.000197965461972878 3.26320615177127e-28 0.000197963391841995)
(0.00019821972431231 -1.42412195458696e-05 1.95584081089232e-27 0.000198224896804069 6.01345790459595e-23 0.000198222188973599)
(0.000198053342017795 -1.42284142103618e-05 7.96827591026459e-27 0.000198058058248056 4.56850015772593e-23 0.000198056180921299)
(0.00019889200117915 -1.43125499576752e-05 -2.67654799034672e-27 0.000198898907243496 3.46998268428207e-28 0.000198894605050971)
(0.000198332515689618 -1.42623809788919e-05 9.74020604348765e-27 0.000198333044365765 -1.3478422629716e-30 0.000198334062557957)
(0.000198855980709506 -1.43198343088326e-05 7.21161384074604e-28 0.000198892009801924 1.03370607109269e-28 0.000198872358319713)
(0.000416910208229459 -0.000123290551214046 1.87711635061389e-26 0.000416439673273005 -1.80775153534827e-27 0.000416647976442847)
(0.000407086557256981 -0.000119281917461388 -1.53214427085716e-26 0.000405959824790183 1.76334178102006e-27 0.000406528990494863)
(0.000396524612669069 -0.000115045034162082 -2.80090811256011e-27 0.000394847391244092 -5.16257516170313e-30 0.000395675897864119)
(0.000385065541471681 -0.000110112163336822 -3.77336713794726e-25 0.000382949747870176 -1.39099958550473e-27 0.000383998620935487)
(0.000373658976803909 -0.000104873919709638 2.45310962012817e-24 0.00037097595608305 2.66850935210921e-24 0.000372310559328979)
(0.000366281813165807 -0.000100732559786571 -6.06737643863715e-24 0.000362520186120758 1.61727308927346e-25 0.000364375420166351)
(0.000362322000824769 -9.74301124130311e-05 1.85501981582842e-23 0.000356869037808996 -9.66456244390913e-23 0.000359557968315741)
(0.000360267734559932 -9.46546659980701e-05 4.34356795103229e-24 0.000352447684191657 1.11501530557242e-22 0.000356306404330691)
(0.000359170947498563 -9.22549807534663e-05 2.90552107946221e-23 0.000348307844235611 2.26235815091286e-25 0.000353670389054884)
(0.000358698994423269 -9.02020289894539e-05 -1.39430824921547e-22 0.000344143360011057 1.80947430883448e-22 0.000351338135729444)
(0.00035929099410368 -8.85442078930028e-05 4.6637822468478e-21 0.000340325724340641 -8.67529087278829e-20 0.000349703449366993)
(0.000360533154109261 -8.71237235936071e-05 6.26063130573734e-21 0.000336577249535817 -8.88677722258756e-20 0.0003484505588372)
(0.000365482996495931 -8.67802832675489e-05 -4.51279723628731e-23 0.000335498085820643 5.06772862273537e-22 0.000350368181436724)
(0.000371082065315017 -8.66599352976365e-05 2.41426690355754e-25 0.000334294898548999 -2.12105385779079e-24 0.000352574312863268)
(0.000377475163459545 -8.67625735619834e-05 3.27670321135209e-22 0.000333026007198416 -1.64157155724547e-21 0.000355146617809041)
(0.00038540029546626 -8.7153455373273e-05 -4.58224735102514e-22 0.000332307986369036 1.61515829573672e-21 0.000358772659904744)
(0.000394790184361424 -8.7726328191716e-05 -6.47729798639734e-22 0.00033204142557961 6.08609059821965e-22 0.000363376248448872)
(0.000404250435308315 -8.81134054697194e-05 5.44334301575678e-23 0.000331128962502247 2.34830854275448e-21 0.00036771163210899)
(0.000413757913647643 -8.82600886976796e-05 -3.96358149896606e-22 0.000329725302495264 2.09632005053173e-21 0.000371850464852818)
(0.000427145927571669 -8.88919017072831e-05 -6.10836457161785e-22 0.000330682836574534 2.3301210570258e-21 0.000379109568028868)
(0.000438360851958144 -8.87786336647842e-05 5.7928775497552e-22 0.00032982274492085 -2.00151629095633e-21 0.00038444573413344)
(0.000455033668540511 -8.94306571195181e-05 -1.46101461318917e-25 0.000332446699188085 1.38688575576887e-26 0.000394217717387722)
(0.000472004021418962 -8.98857073182286e-05 7.22440970485415e-22 0.000335333463137937 -2.10319289265709e-21 0.000404371615586774)
(0.000499981845506211 -9.21418031945623e-05 1.1821860715489e-22 0.000345248663690825 -3.15425912672459e-22 0.00042353018192534)
(0.000526104378592078 -9.43458936107964e-05 -9.04856759045316e-23 0.000354379639641024 2.51946166145956e-22 0.000441505305765003)
(0.000559291803413351 -9.82854981107402e-05 1.85202373079513e-21 0.000368250621284383 7.74355692156238e-22 0.000465302086468674)
(0.000595769340724739 -0.000103771363966983 -7.98458189824328e-24 0.000385281755377658 -1.31041951459189e-25 0.000492410475896745)
(0.000632777747223218 -0.000110981353979136 6.84689641967851e-22 0.000404233594516957 -1.33907791654181e-21 0.000520681774271727)
(0.00067053854252028 -0.000120262589480848 4.80265952940506e-22 0.000425904714029411 2.7170406416997e-21 0.000550605804369679)
(0.000708601530609429 -0.000131823640788816 -3.15976399768851e-21 0.000450819419990714 4.58526687468174e-21 0.000582244393698028)
(0.000742487567486489 -0.000145099617457894 -2.29767481967313e-22 0.00047725492109599 1.22751691309192e-23 0.000612458856002205)
(0.000770723852482527 -0.000159541074049609 -1.99931369921981e-22 0.000505164496265754 -5.28090241332834e-21 0.000640447176276135)
(0.000788290088262852 -0.000173628405617833 -5.34102175501581e-21 0.000532186998994426 7.31561948824638e-21 0.000662537017683494)
(0.00078993799062668 -0.000185069939325932 2.48214113441381e-22 0.000554440461911191 -1.63757690669393e-23 0.000674141770188469)
(0.00078029038211036 -0.000193250361578013 -6.69721744905752e-25 0.000573082105774643 2.73467640617556e-24 0.000678217474419397)
(0.000755613822389965 -0.000195701422298461 5.78215160669558e-22 0.00058438020628265 -2.85241020561334e-21 0.000671141625308464)
(0.000728936015023667 -0.000194793958152056 -2.98416561857187e-25 0.000593957339001437 1.83124230403304e-24 0.000662187517237395)
(0.000709201200328441 -0.00019253708567112 -6.00682876589659e-27 0.00060765948444829 4.82407555325713e-26 0.000658910561487605)
(0.000705012688271536 -0.000192072180566559 1.46732945285155e-22 0.000631753826148171 -1.63955499066214e-21 0.000668673662080333)
(0.00070974158425732 -0.000192234466383299 -1.84477435185624e-25 0.000661710967225331 3.34320992846714e-24 0.000685923497959909)
(0.000716372516977158 -0.000191700656959367 -8.35498545063548e-23 0.000691626771411655 4.46304041843141e-22 0.000704134321872607)
(0.000723326273096915 -0.000190381660400564 2.20425947395715e-24 0.000719902752145739 -1.34595340949802e-23 0.000721704504237185)
(0.000727101882126366 -0.00018747979639299 1.35977872522478e-23 0.000743122182915159 5.66407159827017e-22 0.000735189819020794)
(0.000725674406159119 -0.000182696604733952 1.22426973613498e-23 0.000758971796219895 3.02437431496924e-21 0.000742399846641005)
(0.000718274887300836 -0.000175908500910086 1.68537904977231e-24 0.000766417714446071 -2.29512536174667e-21 0.000742443295275853)
(0.000706283350280034 -0.000167771028139927 -5.35681809188188e-22 0.000766538769260264 -5.11367568714253e-22 0.000736522478003422)
(0.000687182451409168 -0.000157524917925809 -4.11253824104662e-23 0.000756661114757777 4.38943849137786e-22 0.000722081705167875)
(0.000666248416444565 -0.000146956637189961 -9.73791071564683e-22 0.000742235876934485 -4.39639937579061e-21 0.000704423050281209)
(0.000639049449806769 -0.000134786176705512 1.92667915949435e-22 0.000718558596266056 -1.23303870685056e-23 0.000679037283407674)
(0.00060825057755935 -0.000121922897511701 -1.77579788668999e-22 0.000688525765554926 1.37123650639837e-23 0.00064865363202333)
(0.000574843309004338 -0.000108508382634431 -1.44281428404994e-21 0.000653356965965149 -6.43823106550329e-21 0.000614416170895875)
(0.000542086038466601 -9.57742654435894e-05 -8.39583548374643e-22 0.000617038814584555 -5.87912987079803e-21 0.000579894260279045)
(0.0005047622445447 -8.24655520464795e-05 1.7608049383059e-22 0.000573884366327817 2.23824598003991e-21 0.000539697351899535)
(0.000468785033458022 -7.01825792740817e-05 1.8222104725777e-21 0.000531069331555852 5.49741184564032e-21 0.000500304182133596)
(0.000432763200388465 -5.85734802549154e-05 2.96689027537699e-22 0.000487356737530184 7.26850362385631e-22 0.000460459576902667)
(0.000401383238497942 -4.88965012448746e-05 -9.06898525962623e-22 0.000448745245079948 -2.28006980151895e-21 0.000425446881428778)
(0.000369017628604527 -4.00335932034893e-05 -1.07778188362105e-22 0.000409018748891269 8.58744467727759e-24 0.000389401750316418)
(0.000341652123908237 -3.28739410293715e-05 -9.56369298457789e-22 0.000375262514473009 -4.30480690206305e-21 0.000358816666421654)
(0.000317142458255259 -2.69328605775776e-05 6.77049117133179e-22 0.000345152084621819 1.13737019932515e-22 0.000331495746907132)
(0.000297158287655729 -2.24033714163329e-05 -6.93693341040036e-23 0.000320700443598324 6.16986521049725e-22 0.000309250377707673)
(0.000277349823464104 -1.85365711485812e-05 -5.23503930283583e-23 0.000296898901117372 -1.55027275643862e-22 0.000287428403163592)
(0.000262709809882462 -1.561001314605e-05 -8.47943138419168e-22 0.000279172771405913 -3.59958440107534e-21 0.000271227562776731)
(0.000252523066711838 -1.35930864830035e-05 -2.59421738489697e-22 0.000266824365763848 -4.19736147949792e-22 0.000259941700435932)
(0.000242898703587507 -1.20088046952961e-05 1.60920811340065e-22 0.000255405476770154 -1.27623324715977e-23 0.000249405138611159)
(0.000236096672957519 -1.08350045799839e-05 2.58080720418817e-22 0.000247239809924097 -1.53815138517041e-23 0.000241909528448829)
(0.000233744087890226 -1.02282985525307e-05 -5.26605606529238e-22 0.000244141153121165 -1.78006768221962e-21 0.000239173881927111)
(0.000232292877239329 -9.98611089801096e-06 -5.38013154117341e-22 0.000242256853556424 -1.37795177053293e-21 0.000237493150590321)
(0.000232623210267512 -9.94138943381341e-06 5.44635995006802e-23 0.000242331316407529 4.29321503339656e-23 0.000237695348098114)
(0.000238957415040932 -1.05328556087237e-05 -1.94191971561796e-22 0.000249025663195189 -1.16720776531631e-21 0.000244195552540085)
(0.000243841091236597 -1.12811551045292e-05 1.8019759292502e-22 0.00025427921049784 8.14755070325772e-22 0.000249264583889809)
(0.000252081981037396 -1.24661970170332e-05 -1.89247100755529e-22 0.00026321129330363 -5.56816619877624e-22 0.000257838832196085)
(0.000260873276600263 -1.39636541349945e-05 -6.26087388339411e-24 0.000272818582063786 3.31802718701677e-23 0.000267033785981959)
(0.000272684797659942 -1.59784169999259e-05 -5.02443438044695e-23 0.000285698506539502 4.08790140536658e-24 0.000279368464778406)
(0.000286032404222408 -1.85173705021418e-05 -2.75605164478226e-25 0.00030026395324359 -5.01763700786939e-25 0.000293312004051622)
(0.000300368301706777 -2.15410024058815e-05 2.20067152857301e-23 0.000315856774991491 1.3241578417837e-22 0.000308264420801754)
(0.000317082821207355 -2.52572716324847e-05 -2.76093976708376e-23 0.000333926448326027 -2.96366679045841e-22 0.000325634940253128)
(0.000334432399668817 -2.95461654153462e-05 7.86389896277931e-23 0.000352523960792309 -3.54665285108727e-22 0.000343592223472784)
(0.000354762397459909 -3.47254371876939e-05 -1.97008687206403e-23 0.000374063259464585 1.27616696328936e-24 0.000364497617217204)
(0.000376560047365235 -4.07026650464665e-05 4.53152705745324e-25 0.000396822118191877 -1.36442095734501e-23 0.000386753028806836)
(0.000400754504894498 -4.76908683676358e-05 -4.72801364559611e-23 0.000421669941986709 2.95129640541832e-23 0.000411236868171804)
(0.000425181117522474 -5.54068007560855e-05 -1.86072287830123e-24 0.000446203723678104 5.56218944508903e-25 0.000435694474919818)
(0.000453009967959969 -6.43666410612484e-05 -3.89505595255251e-24 0.000473604525727319 -6.13490335069164e-23 0.000463267711806175)
(0.000482181718701307 -7.42947219331921e-05 9.29048026014056e-24 0.000501584555199544 -8.12311769886576e-23 0.00049182433996847)
(0.00051468178519615 -8.56282258060838e-05 -1.86423053026032e-22 0.000532082617966227 1.18487201536937e-22 0.00052328403581308)
(0.000549876570252359 -9.8271237883402e-05 -9.27509708890821e-23 0.000564414257785358 3.73818060091447e-23 0.000557056517727079)
(0.000596981752842329 -0.000114234268273911 9.03617203298392e-24 0.000607802538968803 -1.82148601790067e-23 0.00060224881798972)