/*--------------------------------*- C++ -*----------------------------------*\
| =========                 |                                                 |
| \\      /  F ield         | OpenFOAM: The Open Source CFD Toolbox           |
|  \\    /   O peration     | Version:  v2006                                 |
|   \\  /    A nd           | Website:  www.openfoam.com                      |
|    \\/     M anipulation  |                                                 |
\*---------------------------------------------------------------------------*/
FoamFile
{
    version     2.0;
    format      ascii;
    class       volVectorField;
    location    "0";
    object      U;
}
// * * * * * * * * * * * * * * * * * * * * * * * * * * * * * * * * * * * * * //

dimensions      [0 1 -1 0 0 0 0];


internalField   nonuniform List<vector> 
14000
(
(0.0894797501290148 4.43336792874575e-05 0)
(0.0873742826456688 7.59830228896984e-05 0)
(0.0834856100822036 6.8313341682118e-05 0)
(0.0788098114758689 6.94560817768553e-05 0)
(0.0733881930803442 0.000139661461791177 0)
(0.0682763364448152 0.000346170692779464 0)
(0.0643578022796512 0.000693832917245434 -2.6686354609167e-19)
(0.0616344595655314 0.00117164107392418 0)
(0.060079246458146 0.00177770888148555 0)
(0.0595707758470738 0.00252949182834873 1.17894923586359e-18)
(0.0603392282801158 0.00346625641619333 0)
(0.061964689165128 0.0045995138333323 -2.43408651058186e-18)
(0.0647169553357618 0.0060146085431257 2.39657227040548e-21)
(0.0685015843755216 0.00773829203228398 -4.73869183617576e-21)
(0.0729462542817309 0.00979927797205151 -4.78496674057445e-18)
(0.0782228970064348 0.0122787636241673 4.65989851037986e-18)
(0.084404852168402 0.0152450172548925 4.48423503966859e-18)
(0.0913217808631948 0.01869634830036 4.24688664922715e-18)
(0.0984427482280101 0.0225920544531064 3.95096819944098e-18)
(0.106811120178673 0.0272003259898432 7.19654106173697e-18)
(0.115303666041845 0.0321936908827822 -6.33646026112825e-18)
(0.124849105559747 0.0379505780792957 -2.9683719309673e-22)
(0.134903514573439 0.0441659347765751 -4.21004618013792e-18)
(0.14729550603095 0.0515411366521217 -2.91984550999776e-18)
(0.160408214243449 0.0589473132658326 -3.16543655956743e-23)
(0.174019872971025 0.0664675602690628 3.43781633931139e-19)
(0.188704402673454 0.0735605048224976 0)
(0.202699835610991 0.0792593862555423 -4.45367727068637e-18)
(0.215643384882917 0.0831765778615284 6.79891059111224e-18)
(0.227722230165834 0.0850892209755819 9.25141398344031e-18)
(0.237891380002958 0.0844418746329422 3.24012922621415e-21)
(0.245367150394169 0.0810946346250262 -1.43912257248e-17)
(0.24900355401274 0.0748150774625459 0)
(0.246846970425433 0.0657743098005 0)
(0.240180455530263 0.0552838257228046 0)
(0.227726950858478 0.0437006447852583 0)
(0.210950525497985 0.0326523053044829 6.08347865590272e-21)
(0.193121550290322 0.02302878138707 1.60277538273753e-22)
(0.176937215711978 0.0153306868189753 -6.25195199121723e-21)
(0.163267401408206 0.00913681211868737 0)
(0.150401527063583 0.00406420642060446 6.17795266361784e-21)
(0.13847212224293 -2.44119964388379e-05 -1.00493253866466e-22)
(0.127523999123645 -0.00331333793726668 1.59880876404073e-18)
(0.117142846375706 -0.00592180122761639 3.16189598101139e-18)
(0.10686939545017 -0.00791573911403875 -6.20583453372728e-18)
(0.0972180314263535 -0.00937332996599414 -6.05759126983005e-18)
(0.0873511490927733 -0.0103274649562292 5.8992504476193e-18)
(0.0778261663435294 -0.0108152196507196 -1.14621404120129e-17)
(0.0684880084785065 -0.0109229505186844 0)
(0.0587829419373641 -0.0105916364219614 0)
(0.0487483339680028 -0.00982448890543091 -1.03016714519186e-17)
(0.0394941682615467 -0.00882274116962255 -9.84295459776469e-18)
(0.0303030775109998 -0.00753170367319267 -4.76945550965484e-21)
(0.0213456641898847 -0.00601604901679568 1.78961043972856e-17)
(0.0129365933387347 -0.00435762183805393 8.50114294336654e-18)
(0.00586029601394083 -0.00281392478671525 -8.04033756506768e-18)
(-0.000209727301758401 -0.00134963296569638 7.71770327444087e-21)
(-0.00558044804854024 1.40046242039656e-05 -2.82637743709916e-17)
(-0.00987719115175212 0.00118270061583083 6.74155561719812e-21)
(-0.0130681441467155 0.00207632863440689 1.22577246102377e-17)
(-0.0155624135739088 0.00281559463906422 -6.26354419823551e-21)
(-0.0178709694927491 0.00346867226184642 4.93248974722223e-21)
(-0.019096203186486 0.00381340631691 -9.83097370743328e-18)
(-0.0198383836505548 0.00402561627780311 -8.89906901730807e-21)
(-0.0205459868063055 0.0041914830307244 4.31859445078703e-21)
(-0.0207394844561462 0.00418184615925641 1.60939875242348e-21)
(-0.0203338414585465 0.00401553440620929 -3.52340987350188e-18)
(-0.0200597953182435 0.00386976866691906 -1.00018570735397e-21)
(-0.0191751946281714 0.0035410934578588 -2.89498404910382e-18)
(-0.0179919888606255 0.0031765159869844 5.17620768549069e-18)
(-0.016640413783931 0.00276648420441339 -2.28191155450649e-18)
(-0.0149236643648978 0.0023127492505865 1.75042683383466e-21)
(-0.0129671532759121 0.00183322162024354 3.02408882726354e-21)
(-0.0105183446823982 0.00131194175842789 -3.0775545348225e-21)
(-0.00782956671813462 0.00081043833158753 1.14327872712764e-18)
(-0.00469052830261246 0.000304818472886176 -8.7213934697143e-19)
(-0.00121639821007717 -0.000157853531437664 -6.07658942450913e-19)
(0.00270756950683576 -0.000584361006895055 -4.87361574837294e-22)
(0.00706421406999088 -0.000940302027144588 -4.55743393312633e-22)
(0.0119634952638768 -0.00122765809547045 5.20539113553823e-20)
(0.0172073132531992 -0.00140164247010696 1.14386347464403e-21)
(0.0230066613323009 -0.00146835492275842 -2.34257552187326e-19)
(0.0292915694951767 -0.00139484433124818 -1.49626295655738e-19)
(0.0362725419916019 -0.00119255724306544 1.77794549041863e-19)
(0.0436489561077583 -0.000813179818416969 9.58737791990574e-20)
(0.0527498039705406 -0.000310184891238501 -2.54005773176687e-20)
(0.0621356270603826 1.31808840930815e-05 -1.88528914903863e-21)
(0.0679293626138711 2.31825080631884e-05 3.26691208755633e-21)
(0.0717671868606333 -4.94549373004729e-07 -6.42045662794034e-23)
(0.0752504163588032 -4.91237327136053e-06 -1.35730464661632e-21)
(0.0781350301521189 -8.61371026153728e-06 1.18297980547375e-21)
(0.0805297865140777 -1.16307677643738e-05 -1.17872885037262e-21)
(0.08258778609645 -1.13094746050523e-05 5.31026008539574e-22)
(0.0843194473956588 -1.25524750990833e-05 -5.1309099931718e-22)
(0.0857857512442097 -1.21218409834265e-05 0)
(0.0870265216615186 -1.27959192204142e-05 -4.11418179381231e-22)
(0.08806743862498 -1.20172472178283e-05 2.94609583192197e-23)
(0.0889714129007761 -1.05525345598565e-05 2.76630186071259e-23)
(0.0897239236957801 -1.10981511632825e-05 2.56967652938798e-23)
(0.0903541066875088 -1.04438627294648e-05 5.90737394023198e-22)
(0.0909055420230541 -9.90559816671202e-06 -3.02986919488312e-22)
(0.0913550366363293 -1.04997713914417e-05 0)
(0.0917435558595511 -9.30229525553936e-06 6.27802020433483e-23)
(0.092086009250798 -8.60719132755823e-06 0)
(0.092369421204122 -8.6925903443764e-06 0)
(0.0926059942484307 -8.86140663615919e-06 -5.04934149401611e-23)
(0.0928109665764949 -8.42535901196131e-06 -9.42084391357786e-23)
(0.0929930565299271 -8.02947409645795e-06 0)
(0.093144156632687 -7.58994104502795e-06 0)
(0.0932879498970837 -7.38919472081436e-06 -3.8538611285345e-23)
(0.0933857761568296 -8.71728006941242e-06 7.21478037337072e-23)
(0.0934858424574889 -7.66248013183101e-06 -6.79377423523904e-23)
(0.0935766240718098 -7.88460349379474e-06 -6.37904521709945e-23)
(0.0936519677228992 -7.74784277467412e-06 -6.01026201283829e-23)
(0.093714597645383 -8.62893358252365e-06 1.10076789903239e-22)
(0.0937605390280504 -8.26313717710948e-06 -1.1006796096228e-22)
(0.0938338331025928 -6.80647907672254e-06 -4.90901811358435e-23)
(0.0938788302613276 -8.14033906284836e-06 -9.11952781453871e-23)
(0.0939097383129945 -8.32141932606392e-06 4.88326372170013e-23)
(0.0939489436849714 -8.18889181419724e-06 2.39809179151958e-24)
(0.0939870736496118 -8.19369746359769e-06 -3.79914751563609e-23)
(0.0940138301456613 -8.00371189812907e-06 1.1314216832301e-22)
(0.0940581671965146 -8.06160904553132e-06 -3.80304730815347e-23)
(0.0940586160009045 -9.40110530933287e-06 1.54258702059387e-27)
(0.0941065575209813 -7.21035079655429e-06 6.40797956053803e-23)
(0.094124791897568 -9.26953895819537e-06 -2.8938558919908e-23)
(0.0941397005596658 -8.15920079481578e-06 2.89363427925977e-23)
(0.0941747397736968 -7.96883519147331e-06 -2.61591892434205e-23)
(0.0941968428747301 -7.84938292894179e-06 9.19901699514302e-25)
(0.0942211818086397 -7.94481472887469e-06 9.20936643089183e-25)
(0.0942390185723718 -7.57816080458755e-06 3.03899436641603e-23)
(0.0942840989654009 -6.33899768786819e-06 -9.83072733449442e-24)
(0.0943080837314364 -7.65006185711345e-06 0)
(0.0943240528491506 -8.36725229428848e-06 6.91771724447944e-24)
(0.094359332752236 -5.88791589864027e-06 -4.9169120646163e-25)
(0.0944443164976692 -8.61818427980096e-06 -1.31923236806985e-23)
(0.0944096769715561 -4.37710718739914e-06 -3.95512052511081e-24)
(0.0946526101620711 -1.3099322990872e-05 -8.74990285607721e-24)
(0.0945130930221741 4.37112971093446e-06 9.91077648150968e-25)
(0.094671141873375 -6.87528463980686e-05 -1.86181900505572e-23)
(0.265906099592847 0.00017561308860636 9.99679040193933e-23)
(0.262608982006235 0.00044274042813206 -1.0023047439788e-22)
(0.25622052005379 0.000588482850704766 0)
(0.247423355390399 0.000713983634246256 0)
(0.236541211126199 0.000977275177048885 1.39198943878565e-20)
(0.225286291230032 0.00157159123037523 0)
(0.215384496656163 0.00256238690927456 2.47626060336479e-19)
(0.207525574794486 0.00395453024378768 -9.95668054183057e-22)
(0.201963973223239 0.00574465065931972 1.07244438369031e-21)
(0.19863078351507 0.00795661408684316 -1.12412880939702e-18)
(0.197885538478798 0.0106702857772168 -1.13731267001303e-21)
(0.199224283374683 0.0139086376379468 3.4283913326908e-21)
(0.203019343367204 0.0178492092969579 2.65718664607697e-23)
(0.209039973721062 0.0225610159457578 1.03350970198128e-23)
(0.216789584708687 0.0281160242491714 -6.59434125047148e-24)
(0.226339103245175 0.0346692219347738 -4.45355991597025e-18)
(0.237787119627479 0.042375688354618 -4.27652593579863e-18)
(0.250932372878623 0.0512644084395211 4.04736555554865e-18)
(0.264971032669792 0.061263424106935 0)
(0.28121871138524 0.0728671906717952 0)
(0.298309515483468 0.085536563765141 6.9726290728071e-22)
(0.317477894138551 0.0999344756616705 -6.76239887193397e-22)
(0.337981074868722 0.115522375347613 0)
(0.362556772848489 0.133569614596733 -6.33603689871961e-23)
(0.38956534826606 0.152113929710953 3.47644577420313e-23)
(0.418828447009793 0.171081676232575 -4.23855332994666e-19)
(0.450848309924727 0.189265495734283 8.68193929855511e-22)
(0.483722654662803 0.204668955466767 -8.43312835720316e-22)
(0.516344619430524 0.216096565377252 -6.97750994144114e-18)
(0.548458893536888 0.222744572184995 5.81598712101061e-20)
(0.578406482977238 0.223257949612186 0)
(0.604414358855228 0.217012296148142 1.51581602412752e-17)
(0.623890715315409 0.203277327517077 1.79482983888071e-17)
(0.632683010277005 0.18215238800878 0)
(0.630903280714844 0.15627036322248 0)
(0.61578221498167 0.126619562794312 0)
(0.58884561846951 0.0970278912032807 0)
(0.555079922215388 0.0700818828978911 0)
(0.52097635377689 0.0476121715341633 0)
(0.489865867449303 0.0290752093540994 0)
(0.460279596215809 0.0135913686116697 -7.5236615512981e-22)
(0.432225194424812 0.000799853898102667 -5.85290937753292e-20)
(0.405747488173484 -0.009736424592795 0)
(0.380299002500321 -0.0183335747638733 -8.08552287641329e-21)
(0.354937941868277 -0.0251941203145246 8.7634133425265e-21)
(0.330472218582606 -0.0304683608624119 7.12104117469888e-18)
(0.30542627840405 -0.0343071001441718 -6.93910304124978e-21)
(0.280809271287385 -0.0367610778776899 1.35427464484614e-17)
(0.256162468762339 -0.0380404381629584 -6.2402356545421e-21)
(0.230689681145344 -0.0380690413407446 6.41152349374356e-21)
(0.204087481664697 -0.0368331995191614 1.23173748786935e-17)
(0.178585327837556 -0.034728871012902 -9.56716109990873e-21)
(0.152898957652057 -0.0316987946639439 1.14271866487486e-17)
(0.127596882662191 -0.0279260983684256 -1.09652090892545e-17)
(0.103082023151066 -0.0235802097450481 -2.10676350826998e-17)
(0.0815081321193534 -0.0193239105776525 1.00757597127635e-17)
(0.062164114321863 -0.0151064239543417 -9.01105186732627e-21)
(0.0449333686403273 -0.011116710029476 1.84084440475629e-17)
(0.0303369119678713 -0.00754413383879517 -1.75284643883746e-17)
(0.0188442969349612 -0.00467135314592172 -1.66496534569307e-17)
(0.00930261215746927 -0.00217437570002906 1.57301065608306e-17)
(0.000911164319340498 5.21557904389642e-07 -1.48142591942242e-17)
(-0.00455931076126119 0.00136736720368988 1.3741261876244e-17)
(-0.00850672854090102 0.00237545519462852 5.8764950523876e-21)
(-0.0118519571656132 0.00318059382179925 -5.97138690442574e-21)
(-0.0135576338906976 0.00347844156102267 -2.12301576432882e-17)
(-0.0136203633212099 0.0033724983703879 4.83242454746167e-18)
(-0.0135897288465161 0.00325593533787236 -4.37470052568768e-18)
(-0.0117416972901867 0.00261851154048889 -1.30027578503207e-20)
(-0.00914209414307835 0.00192792600879791 -6.96655201023552e-18)
(-0.00580715649861055 0.00107061701862324 0)
(-0.00156775831804319 0.000124262086250851 -2.64792332213848e-18)
(0.00345925779108604 -0.000903519042131899 -8.72296877126771e-21)
(0.0096594433477856 -0.00200802303223536 7.05596463914451e-21)
(0.0165185406936126 -0.00305064296823379 -3.10058728756703e-21)
(0.0244425591325765 -0.00408302940175858 1.70080336552573e-21)
(0.0331399003480805 -0.00498100375572911 -6.97584974077075e-19)
(0.0428598646294762 -0.00576631013578595 5.04973146515827e-22)
(0.0534998526019163 -0.00634634910950662 -4.9065790436423e-22)
(0.0652730837877098 -0.00672512034458158 -5.45157547743523e-20)
(0.0777762191970901 -0.00680591713872814 0)
(0.091376297955968 -0.00660402250499179 0)
(0.10591166493261 -0.00604521005249244 0)
(0.121748360271635 -0.00516127391662002 -3.31466680609173e-19)
(0.138388300305435 -0.00388182519774949 -8.98363895145215e-20)
(0.157766340217833 -0.00229370888308103 2.38739235431637e-20)
(0.178005441891435 -0.00104315861155457 -3.35635783126756e-22)
(0.193495464312737 -0.000627571379858735 -6.27482310136643e-22)
(0.205118437728348 -0.000508519885435519 7.45396727141871e-23)
(0.214931425861848 -0.000413261719145418 -1.75175647608114e-23)
(0.223330732884418 -0.000345135908194517 1.01878181251248e-21)
(0.230528334845207 -0.000292654804308261 -1.96367671304741e-21)
(0.236785746944684 -0.000243888371913352 6.22993555955525e-23)
(0.242190916081572 -0.000206353498296967 8.80887762880729e-22)
(0.246875395592255 -0.000173146116752692 -7.4916009066602e-22)
(0.250927505006912 -0.000147544084262225 8.05720477268356e-22)
(0.254426668293839 -0.000124812550953843 0)
(0.257485142853777 -0.000103427401507756 0)
(0.260125112669716 -8.9468591250889e-05 2.8073509941198e-22)
(0.262405856558947 -7.68909765361567e-05 1.34458835910585e-23)
(0.264403691165161 -6.58038669342087e-05 -5.01496898903407e-22)
(0.266119408124571 -5.94455880500481e-05 7.52807415566211e-23)
(0.267618392315869 -5.12642492087429e-05 2.23996694853948e-22)
(0.268937735385856 -4.42916879274424e-05 0)
(0.270083284212173 -4.0053714132015e-05 -4.66231248923791e-23)
(0.271075641969966 -3.7284418387268e-05 4.34718876286926e-23)
(0.271944294334382 -3.40175248250005e-05 4.0569531846124e-23)
(0.272713847168857 -3.09527613178011e-05 0)
(0.273384243167944 -2.84126505465273e-05 -1.37345408960841e-22)
(0.273992306866886 -2.59754053388673e-05 1.37385647812462e-22)
(0.274494688936407 -2.79474209119149e-05 -6.22599545432167e-23)
(0.27495475188956 -2.54741556024156e-05 1.13697136522064e-22)
(0.275363999093977 -2.50144310492715e-05 4.83079831892009e-23)
(0.275727885949348 -2.41076774654064e-05 -1.07021974207172e-22)
(0.276044144883193 -2.54053688716705e-05 9.5134839759775e-23)
(0.276312620709689 -2.52423173935731e-05 -4.8945308606534e-23)
(0.27659235819696 -2.14937038054884e-05 8.49161759734247e-23)
(0.276823320739658 -2.33646717729165e-05 -1.23974778682986e-22)
(0.277019887401715 -2.40994769944714e-05 8.02244725418112e-23)
(0.277203202391545 -2.39664077101128e-05 0)
(0.277375534969811 -2.38461153190255e-05 0)
(0.27752255680156 -2.36665641077581e-05 3.2943522069426e-23)
(0.277681935795735 -2.30272012248359e-05 -3.11663861090694e-23)
(0.277776032147181 -2.66612686551189e-05 2.9245960811115e-23)
(0.277919632284838 -2.20661446807203e-05 -9.8561535761325e-25)
(0.278018372994832 -2.58447926349983e-05 -2.68145184941112e-23)
(0.278113014427672 -2.42987074420562e-05 -4.79330512912742e-23)
(0.278217486761025 -2.3659585291128e-05 1.65866181565307e-24)
(0.278309924834628 -2.33140045852343e-05 4.2973918074589e-23)
(0.278399276296353 -2.34142744902762e-05 1.94901524065171e-23)
(0.278475223852468 -2.32397410771881e-05 -1.78592856570735e-23)
(0.278584148713165 -2.04250144561859e-05 -8.14822549735516e-24)
(0.278668057130557 -2.26947474875786e-05 0)
(0.278740192442401 -2.54216049656193e-05 0)
(0.278827224007385 -2.13365709080363e-05 -8.15385841301025e-24)
(0.278988336925176 -2.69012981189579e-05 -1.59606540066593e-18)
(0.279000543659752 -2.03470372314392e-05 -1.21356988341321e-18)
(0.279375066264232 -4.3168761684998e-05 0)
(0.279265523804751 8.92004319859712e-06 -9.87308996903566e-25)
(0.279586484535594 -0.000187867158653756 1.67741631206494e-23)
(0.404392041855227 0.000311237304495278 0)
(0.40155135808293 0.000828052250804264 0)
(0.3956746330756 0.0011973627928174 0)
(0.38692024869314 0.00154456171227658 0)
(0.375437621289975 0.00207130657694224 -8.52041265319247e-21)
(0.362658486331668 0.00306798497888147 -5.86548331581698e-22)
(0.350313775458386 0.00465098886387342 0)
(0.339499138579696 0.0068457169041026 -3.35594742215368e-19)
(0.330863159384725 0.00965526356834342 0)
(0.324635192379053 0.0131010104608979 7.28729734015821e-19)
(0.321284418602425 0.0172677655055405 2.61854211515391e-16)
(0.32045321761111 0.0221606374375875 2.6712370098606e-16)
(0.322472180528916 0.0279763026740902 -1.5337273473281e-18)
(0.327240987457652 0.0347796726901857 1.49138367558171e-21)
(0.334386842918368 0.0426684557586703 -4.68419577462814e-24)
(0.343908035660332 0.0518146494713908 -1.77953221613922e-23)
(0.355881943697751 0.0623870070267705 2.83818530018739e-18)
(0.370204161046613 0.074433842431634 -2.71667386078258e-18)
(0.386197165490509 0.0879323463509931 -2.54552524837471e-18)
(0.40485423587581 0.103356616438333 5.4586215717086e-22)
(0.425264153360019 0.12022708575157 -5.85547348308741e-23)
(0.448335642024677 0.139201288955866 -4.69998039832264e-22)
(0.473665402954603 0.159763488971164 2.84027824063477e-18)
(0.503529523501517 0.183053982297116 -1.96829616123719e-18)
(0.537340219523071 0.207133791902845 -8.83083097219772e-19)
(0.574857997648559 0.231871264561281 3.11200749535007e-19)
(0.61671665417024 0.255773962354035 1.30905423122103e-22)
(0.661447966268975 0.276678451582816 0)
(0.707705743591953 0.293044180634623 0)
(0.754811923954069 0.303578789893679 -7.44749340270324e-18)
(0.800956583727424 0.306505363116245 2.08871535865487e-21)
(0.843893375563694 0.300805272588167 -6.45069093004501e-21)
(0.880453157297562 0.285315251748242 -2.83644078933296e-17)
(0.905632108099127 0.259911801580489 0)
(0.917843331748439 0.227238949451218 -9.20734309688878e-21)
(0.913397880069921 0.188425793392682 9.79107555119993e-18)
(0.892406552507189 0.148157811994876 0)
(0.858994922061705 0.109843734319781 0)
(0.820412189427657 0.0764092128961916 5.56784759080084e-18)
(0.781778753856806 0.0477986228208285 -1.09732481938495e-20)
(0.743451457763181 0.0233059397354637 -1.41305635865112e-18)
(0.706007986981633 0.00261602377259584 4.37925866329319e-20)
(0.66973613158501 -0.0147948161539053 0)
(0.634347410910684 -0.0293256059511484 -5.41219825218576e-18)
(0.598941235259728 -0.0412726500941906 2.90449728603715e-21)
(0.564252723366855 -0.0507917507100066 -5.12265413144641e-18)
(0.528857037702851 -0.0581765105542967 4.95642120777151e-18)
(0.493715456676236 -0.0634186784938149 0)
(0.458294420457476 -0.0668438883999821 0)
(0.421880468270255 -0.0684034214693481 -8.35308829435822e-21)
(0.383910751916034 -0.0680895097509963 8.45224671533966e-18)
(0.346639505984054 -0.066244124986711 8.07937406400572e-18)
(0.308907233097181 -0.062936358821067 -7.70113405620385e-18)
(0.271431193522678 -0.0583691634718962 -6.88440151572447e-21)
(0.234540131469765 -0.0527521980160625 6.99327336728655e-18)
(0.20090796375742 -0.0468586741644366 0)
(0.169993218542493 -0.040761237265002 0)
(0.142073035790906 -0.0348168290599685 -1.19673152855793e-17)
(0.117614220041194 -0.0292527427782987 -8.56232565665145e-21)
(0.0974777266214976 -0.0245016476848519 1.0677620637973e-17)
(0.0803077292974595 -0.0202265120310455 0)
(0.0653980029696489 -0.0164772410865147 1.88454968252016e-17)
(0.054484023338334 -0.0137300261663172 -8.7864556820277e-18)
(0.046137725628931 -0.0115210638580483 4.17424422250256e-21)
(0.0392318162718025 -0.0097001329538108 0)
(0.0348025208990788 -0.00857565941825904 1.02286770292194e-17)
(0.0328191929175304 -0.00799953550540141 3.089589564445e-18)
(0.0314795066666661 -0.00754272598923075 -6.39718286949807e-22)
(0.0325804970237325 -0.00774687561592154 2.39470978589945e-18)
(0.0349278771353262 -0.00804346541522715 2.09426523870321e-18)
(0.0384536505619088 -0.00859030054027514 -3.23308328901906e-21)
(0.0431975824392365 -0.00924247548774434 3.17563715933652e-21)
(0.0490721976214876 -0.0100037629942059 0)
(0.0563762484743929 -0.0108312897472471 -1.71668925341887e-21)
(0.0646199181264905 -0.0115876484390819 7.59743347051132e-19)
(0.0741012033043722 -0.0123056406286914 -1.25376004143803e-21)
(0.0845584803900821 -0.0128513279334445 3.68132701366486e-19)
(0.0961744553322532 -0.0132381937802604 -8.17060857974381e-22)
(0.108864473280222 -0.0133635798422521 3.35972177602574e-20)
(0.122801206894758 -0.0132303035062318 -2.18935827023693e-22)
(0.137648913024679 -0.0127445812799852 2.04224211316645e-22)
(0.153666234252138 -0.0119148710188359 -1.18563597640588e-19)
(0.170754371845594 -0.0106683103127554 0)
(0.189215246359041 -0.00904961797412087 4.94415054374218e-22)
(0.208652926395617 -0.00700010081038875 4.59142504394456e-20)
(0.230518455292187 -0.00464871078888807 1.45858970796477e-21)
(0.253785469609541 -0.00281512970320807 -7.21074139484766e-22)
(0.273790993690655 -0.00205824728283884 1.6987188160698e-22)
(0.29020395961817 -0.00170641771436127 -4.09650343155591e-23)
(0.304441266357293 -0.00142883947077017 -5.86214497655787e-22)
(0.316919476695334 -0.00122542188890659 6.08563645464788e-22)
(0.327897040272868 -0.00106123178006007 0)
(0.337633664424522 -0.000915235692012958 0)
(0.346261222992869 -0.000794188981538353 -4.76198352556065e-22)
(0.353916348983593 -0.000687725955143735 3.33670008836219e-23)
(0.360708898891027 -0.00059853774113876 3.18093899218434e-23)
(0.366729373811869 -0.000520127798989625 8.07829502262056e-22)
(0.372094501356769 -0.0004494094562565 -4.0113785637089e-23)
(0.376856995157775 -0.00039357070194052 -3.64680600345723e-22)
(0.381082256392847 -0.000344251061762471 2.74449911301086e-22)
(0.38485342046912 -0.000300856057701688 -3.16861500623052e-22)
(0.388197608765256 -0.000267345370869461 1.01555901309134e-22)
(0.391179275188326 -0.000234667979261641 -1.70818225079289e-22)
(0.39384962133937 -0.000206307787563362 0)
(0.39623264578705 -0.000183958379497267 5.77900540215277e-23)
(0.398357523327423 -0.000165544747306779 0)
(0.40025906339237 -0.00014837073073815 9.79083077585997e-23)
(0.401970270894034 -0.000133104329954306 -1.21922922285933e-22)
(0.403503686751838 -0.000120037639879416 0)
(0.404897503711826 -0.000108106786828934 -6.00944766499582e-23)
(0.406130821694107 -0.000103146737949868 4.96309626686004e-24)
(0.407252334713836 -9.32491901106055e-05 1.48330029414816e-22)
(0.408269087145279 -8.68744935811553e-05 -1.06980194865592e-22)
(0.409191467225362 -8.06491830919163e-05 6.40166081170635e-23)
(0.410024429465905 -7.77468128982657e-05 -6.41600470569969e-23)
(0.410770085695449 -7.37173926733111e-05 0)
(0.411477716213476 -6.52745662176652e-05 -5.41921515289299e-23)
(0.4121144126081 -6.47049744951917e-05 5.29196618412029e-23)
(0.412688102963449 -6.29236192922687e-05 -9.99400139601431e-23)
(0.413216871198427 -6.02691921177954e-05 4.86708580665917e-23)
(0.413708213696687 -5.80377888998989e-05 0)
(0.414153993829852 -5.60731605067244e-05 -2.18696605343708e-26)
(0.41458542513108 -5.33462541011878e-05 -1.94258218441311e-23)
(0.414947809035218 -5.68847220126676e-05 1.94544087775174e-23)
(0.41532181021774 -4.93368926826611e-05 -1.72765819545133e-23)
(0.415650063336056 -5.32207337368044e-05 1.73011156455882e-23)
(0.415955781288327 -5.02225199192516e-05 0)
(0.416253548428256 -4.83494472390077e-05 1.41492888558839e-23)
(0.416530764585402 -4.71892104670703e-05 -2.78046549439083e-23)
(0.416794043919263 -4.65055918849574e-05 0)
(0.417035667341134 -4.57878430192472e-05 0)
(0.417291539924128 -4.15540126968768e-05 4.99476466699013e-24)
(0.417524563333487 -4.41432299278321e-05 -4.99330593134765e-24)
(0.41774018699294 -4.76496862030705e-05 0)
(0.41795496741995 -4.23143103937368e-05 7.2502372197732e-24)
(0.418227481847884 -5.01672321137379e-05 1.03836804584152e-18)
(0.418381400626585 -4.22806851333025e-05 7.89048253651904e-19)
(0.418812003459254 -7.65563983466807e-05 3.55786702479515e-24)
(0.418875482700355 6.41821921523857e-07 -3.10750891437649e-25)
(0.419327111804482 -0.000287107588233618 -1.09353647574341e-23)
(0.492012669915099 0.000428913506431964 0)
(0.489886243598295 0.00115469002588824 0)
(0.485116913201637 0.00173647385418032 -1.91356251944695e-22)
(0.477634995418988 0.00231692898969179 1.92256623956078e-22)
(0.467374739292312 0.00311567642400152 0)
(0.455282039105775 0.00447290078879209 5.33014999818502e-20)
(0.442783213672236 0.00652486543346269 -1.11484673174845e-19)
(0.430998531541156 0.0093052188163644 6.42461290344739e-22)
(0.420765005166949 0.0128205963034597 -4.6648174543079e-22)
(0.412561260797725 0.0170877663679068 0)
(0.406984868749475 0.0221890960019092 -1.804868274303e-16)
(0.40394521239933 0.0281128045949397 -1.84493368302675e-16)
(0.403745950057151 0.0350569026119345 2.11148491082135e-18)
(0.406423998971022 0.0430668365951444 1.0456304869915e-18)
(0.411747656330413 0.0522502945774896 -1.00451475385606e-21)
(0.419727968805826 0.0627823716010037 2.01517046150325e-18)
(0.430444238431004 0.0748273359427438 -1.95116699064031e-18)
(0.44387207345223 0.0884425633996309 0)
(0.459487044429829 0.103645558591817 1.75373294016791e-18)
(0.47802752744109 0.120873444745435 -8.13856164977713e-22)
(0.498946956087582 0.139714366119523 2.87609060540009e-18)
(0.522872137058563 0.160787088737377 0)
(0.549708790495693 0.183629548272232 -2.8202451697765e-20)
(0.581197346592001 0.209183299141277 1.3911123958009e-18)
(0.61750233258113 0.235633469146894 6.29251649529783e-19)
(0.658339134307471 0.262811217139043 1.00271982312923e-22)
(0.704552490358757 0.289167016303743 -1.36791820763377e-18)
(0.755098462513251 0.312585502065203 -2.63352856830765e-18)
(0.808733793999927 0.331462253358871 4.07171204081251e-18)
(0.864691776947737 0.344293638177733 -2.01201255102643e-21)
(0.921264234185801 0.349122039739161 3.21802266741817e-21)
(0.976072837140473 0.344682218251717 0)
(1.02609131937275 0.329632251143115 1.12532670866408e-17)
(1.06614841599701 0.303633430764768 -1.2940180584804e-17)
(1.09349383274456 0.269017474389977 0)
(1.10400469705907 0.226768947490011 -7.84350565655796e-18)
(1.09603518259425 0.181668781320771 -8.23728365627744e-21)
(1.07196571291126 0.137325565473013 1.67063419659667e-20)
(1.03776276822532 0.0972361850449159 -4.39820439723981e-18)
(0.999022996614622 0.0618554254053349 -2.18765772185612e-18)
(0.957678771563277 0.0309055847431192 0)
(0.915323221310847 0.00434546819168048 -4.79529259989366e-23)
(0.87296335031226 -0.0182800616805684 0)
(0.830883252725216 -0.0373632188798785 2.01963515266735e-18)
(0.788578890494856 -0.0532529395396449 3.86287272462805e-18)
(0.746770181577989 -0.0660941724538207 0)
(0.70435364138759 -0.0763197770788106 -3.54752484840813e-18)
(0.662076288748715 -0.0838502272878551 6.74557351842702e-21)
(0.619541700077898 -0.0891381590863395 6.07033534217939e-21)
(0.576116355797107 -0.0921518587218823 -1.18309683750091e-20)
(0.531144137398415 -0.0929272517399229 -5.72592298895006e-18)
(0.486475485841048 -0.0916840518122954 5.45922323771344e-21)
(0.441305534969885 -0.0886576200345372 -5.07047966471161e-18)
(0.396239717317654 -0.0839903363833176 -9.31555916185981e-21)
(0.351594446621246 -0.0779560761276916 3.68164338770451e-22)
(0.30988197235433 -0.071243475861116 4.27016231693563e-21)
(0.271041802054396 -0.0641178873107746 0)
(0.235500434299221 -0.0569782969003653 7.2946474114528e-18)
(0.203761012074606 -0.0501144189279251 6.79664040621884e-18)
(0.176775728885817 -0.0439892397350338 -6.311395556847e-18)
(0.153495233082777 -0.038395378337314 0)
(0.133187737950421 -0.0334137579402598 -5.3982564249191e-18)
(0.117270397370824 -0.0294388604241169 4.95364172206145e-18)
(0.10467833644991 -0.026114978001035 4.20741943132366e-21)
(0.0942197344730152 -0.023310927896024 -4.23545376864175e-21)
(0.0866087993658564 -0.0212589583403946 1.82741543621675e-21)
(0.081910615722497 -0.0198222367530279 -1.65361192307038e-18)
(0.078437130195562 -0.0186299987820037 -3.04560801934336e-21)
(0.0774707359191926 -0.0180952209539245 0)
(0.0782296342572349 -0.0177358716683815 -2.00393780551116e-21)
(0.0804369992539618 -0.0176760422551281 1.9608187800744e-21)
(0.084103213579004 -0.0177612684611283 0)
(0.0890946663709764 -0.017984685366883 1.13456644675281e-21)
(0.0956530304161556 -0.0182881085582835 -1.10401192119924e-21)
(0.103374675369915 -0.0185513417088967 -3.91632935650084e-19)
(0.112429535680398 -0.0187842585235229 0)
(0.122623396585724 -0.0188618436735554 0)
(0.134053587166987 -0.0187829387203942 0)
(0.146669564660618 -0.018448975655326 6.82744667573857e-22)
(0.160592354983105 -0.0178565167221854 -1.3568658719883e-20)
(0.175570176394517 -0.0169209514725828 0)
(0.191759857337905 -0.0156407313710566 6.30275713789819e-20)