/*--------------------------------*- C++ -*----------------------------------*\
| =========                 |                                                 |
| \\      /  F ield         | OpenFOAM: The Open Source CFD Toolbox           |
|  \\    /   O peration     | Version:  3.0.1                                 |
|   \\  /    A nd           | Web:      www.OpenFOAM.org                      |
|    \\/     M anipulation  |                                                 |
\*---------------------------------------------------------------------------*/
FoamFile
{
    version     2.0;
    format      ascii;
    class       volScalarField;
    location    "0";
    object      k;
}
// * * * * * * * * * * * * * * * * * * * * * * * * * * * * * * * * * * * * * //

dimensions      [0 2 -2 0 0 0 0];

internalField   nonuniform List<scalar> 
14000
(
0.000351797332276881
0.000348489544862683
0.000347840856201116
0.000347461750264841
0.000347436855752147
0.000347825792484924
0.000348631590450425
0.000349836729739233
0.000351417701431944
0.000353352490530795
0.000355626758286728
0.000358236877181449
0.000361192074724685
0.000364515592001129
0.000368246709504239
0.00037244149335686
0.000377176509134356
0.00038255151446466
0.000388689293102969
0.000395649086166061
0.000403672419975816
0.000415279411523551
0.000436062807572427
0.000467572631421223
0.000507366798358581
0.000550165514196471
0.000588820582102703
0.000617877748422565
0.000632680985463185
0.000635000839097305
0.000623496941987543
0.000600759803160481
0.000570213466377038
0.000533268025667541
0.000491372775343485
0.000446760213896525
0.0004030689463806
0.00035844222986269
0.000317892847456202
0.000279827947328799
0.000247604963104572
0.00021643748605499
0.000188898484150921
0.000163032928763224
0.00013874535353949
0.000116950090314489
9.83704641182576e-05
8.27328589765752e-05
6.969284496276e-05
5.83700955540177e-05
4.82695041422061e-05
3.91092896347905e-05
3.07127331256942e-05
2.35800432538078e-05
1.79180495353443e-05
1.36488357842865e-05
1.03566857452773e-05
7.75425977265169e-06
5.70545356305435e-06
4.09327432811413e-06
2.8118226111123e-06
1.8177117385681e-06
1.08687974226132e-06
5.12640158367064e-07
3.45129677506049e-07
4.39386456201424e-06
3.97143901195613e-05
0.000943647412538233
0.00326973737137388
0.00394946512142709
0.00389226557978659
0.00376011236725835
0.00368480904210749
0.00364055673882863
0.00363897128090542
0.00364553125388835
0.00366855519743061
0.00368774083268087
0.00373446505517389
0.00376447969727293
0.00380670671521501
0.0038534509461052
0.00389700341671583
0.0039409123156856
0.00398473778953114
0.00402930874336368
0.00405863579613829
0.00409957767369222
0.00412027239855963
0.00414441272721779
0.00415881881612726
0.00416068788461303
0.00416011829521175
0.00414575408956151
0.00412434278643763
0.00409187960228753
0.00404764535045482
0.00399447032186559
0.00393120357501368
0.00385657661339549
0.00377353873988158
0.003680971294612
0.00355791348135368
0.00341308357675575
0.00327571277416809
0.00314356549208256
0.00301779581540553
0.00289712813846039
0.00278197566401597
0.00267203696590513
0.00256717634104821
0.00246701683128905
0.0023712370293726
0.00227953158083936
0.00219169503205429
0.00210757260131095
0.00202706804170016
0.00195012760561017
0.00187669241187166
0.00180668776772224
0.00174001230584424
0.00167654764415221
0.00161615780884454
0.00155870483492133
0.00150405368515993
0.00145207458990669
0.00140262084504311
0.0013555899884885
0.00131083089139782
0.0012683004133698
0.00122779261013517
0.00118939325824185
0.00115271295294081
0.00111817445782715
0.0010848451910529
0.00105409926944357
0.00102331661531697
0.000997495421144212
0.000966047329150248
0.000949218634383353
0.00369068594189809
0.00369013319750797
0.00368678482803142
0.00368501585295464
0.00368535765278542
0.00368817712553068
0.00369349827399212
0.00370120525671328
0.00371113000567295
0.0037231027299572
0.00373699122565471
0.00375271987950932
0.00377028136084489
0.00378974077129537
0.00381124256750818
0.00383500946717962
0.00386135116808113
0.00389067656187067
0.00392348079763027
0.00395983695185628
0.00400100866151724
0.00405982145361183
0.00416051007139617
0.0043043417873298
0.0044739283913876
0.00464231666026809
0.00478525858494059
0.00488733927177755
0.00493870751017232
0.00494705851290171
0.00490920325751886
0.00483178359270806
0.00472256496743147
0.00458179881676834
0.00440860871118368
0.004205758824706
0.00398188395875095
0.00372635609604473
0.00346031226701302
0.00318009042004058
0.00290944489279015
0.00262589955302535
0.00235318626369451
0.00208502353596876
0.00182498824602452
0.0015819493199762
0.00136349820535617
0.00116968532289108
0.00100074116894554
0.00085008285187967
0.000714026378036263
0.000590053189725266
0.000475576875648694
0.000375679866256206
0.000293047133406579
0.000227976349648892
0.000176217136128318
0.00013447158052192
0.000100951077913102
7.39841742919913e-05
5.2069264621451e-05
3.46667940523135e-05
2.15447889836423e-05
1.09190853614136e-05
6.247357931985e-06
8.14183661568278e-05
0.000638095659660827
0.00831499266488256
0.0157681654931894
0.0174978266777291
0.0172021820912395
0.0164779940899535
0.0157520401711098
0.0150581569336644
0.0144315567492068
0.0138416372103096
0.0133001321626725
0.0127880262189086
0.0123330986066875
0.0119182516686073
0.0115473835924293
0.0112268452555657
0.0109524177416736
0.0107242157815431
0.0105387012182418
0.0104003067103759
0.0102965101837535
0.0102313669390469
0.0101990044325121
0.0101960887660325
0.0102239558072309
0.0102734054336656
0.0103448896748051
0.0104339226113721
0.0105388525821431
0.0106567890312624
0.0107833341588596
0.0109158590234954
0.0110528335455679
0.0111891989766061
0.0113234374544905
0.0114524441424798
0.0115434854144557
0.0115660031612254
0.011536825317977
0.011466541175603
0.0113659752710154
0.0112415728651736
0.0110995097915305
0.0109442856044912
0.0107797136846237
0.0106086525161334
0.0104333847039834
0.0102556732170866
0.0100769191504284
0.00989827894100279
0.00972075443113985
0.00954517386630623
0.00937221027388915
0.00920240804090818
0.00903617719003625
0.00887382822064025
0.00871556586565192
0.00856153503751387
0.00841179984997944
0.0082664198744884
0.00812535088549654
0.0079886436272669
0.00785613109248806
0.00772797355027329
0.0076037584934027
0.00748400014760879
0.00736766838263271
0.00725627061695743
0.00714710848405704
0.00704448903573368
0.00694072022647124
0.00684970966558258
0.0067464764592374
0.00663202842630586
0.00605976673903208
0.00605789194679847
0.00605593601530431
0.00605555047605664
0.00605722343531001
0.00606126179447312
0.0060676959937196
0.00607642946485659
0.00608731224116825
0.00610018844483997
0.00611493388778748
0.00613147550421505
0.00614980437247485
0.00616998019223733
0.00619213978370058
0.00621649705194988
0.00624335426428216
0.00627312018450968
0.00630634807544317
0.00634323513639676
0.00638532767926331
0.00644350599122336
0.00653560700554394
0.00666039802531933
0.00680243901771624
0.00694013621938597
0.00705567443412445
0.00713782923845284
0.00718085929402255
0.00719106135599029
0.00716700043318362
0.00711420319641864
0.00703858225967407
0.00693932254707495
0.00681437737687821
0.00666347026460499
0.00648995952711601
0.00628050741112929
0.00604744442289461
0.00578124614773577
0.00549796192153493
0.00516949364189688
0.00481742329366506
0.00443561256842345
0.0040309997858148
0.00361956280771179
0.00321886598483045
0.00283694549707883
0.00248241711828207
0.00215174915117297
0.00184502150967178
0.00156149403640373
0.00129601990258127
0.00105764372362312
0.000852096792062627
0.000682757405248032
0.000542738336257568
0.000426028581320748
0.00032905509553177
0.000248080613471172
0.000179804934353644
0.000123665425913599
7.98203843947208e-05
4.27547775423392e-05
2.28755999026951e-05
0.000268597998532535
0.00207283762117933
0.0141296245202506
0.0212171134536961
0.0227092759383414
0.0222171132252266
0.0212308675953781
0.0202055296128908
0.0192147659870966
0.0183032027975138
0.017453523892958
0.0166757208280753
0.0159525599795467
0.0153068644473692
0.0147268518963018
0.014209427678151
0.0137610511422547
0.0133770663533902
0.0130551673314127
0.0127903293649895
0.0125864065420079
0.012429975474731
0.0123218758652861
0.0122581071923504
0.0122319424953223
0.0122456477667897
0.0122888331298964
0.0123602720608929
0.0124559435860962
0.0125728589781055
0.012708051159616
0.0128564059010426
0.0130145251539476
0.0131807829916813
0.0133498881877471
0.0135196938643822
0.013687341893267
0.0138200218871375
0.0138811272938486
0.0138812628690579
0.0138336320231562
0.0137503492239606
0.0136394906698881
0.0135079664651762
0.0133610480566691
0.0132030870981243
0.0130374627187804
0.0128668686703218
0.0126934078315324
0.0125187421547482
0.0123441926306989
0.0121708301361345
0.0119995125668655
0.0118309126432162
0.011665558932057
0.0115038394677142
0.0113460438261688
0.0111923565377774
0.0110429077563885
0.0108977337760239
0.0107568827718234
0.0106202855297441
0.0104879928628406
0.0103597914918598
0.0102358619586452
0.0101157080130877
0.00999991806231756
0.00988730261324183
0.00977955150875344
0.009673668243248
0.00957430153212097
0.00947347701240551
0.00938403278710746
0.00928945551712595
0.00916236516170977
0.00738831648133656
0.00738881478928154
0.00738887869516297
0.0073901349060472
0.00739308419060654
0.00739802570374244
0.00740506319488853
0.00741419915744542
0.00742539112146654
0.00743858729504427
0.007453757078302
0.00747090930621045
0.00749010983946425
0.0075114889710192
0.00753526004191111
0.00756172376273155
0.00759130216595504
0.00762455336144939
0.00766232360232979
0.00770536238133956
0.00775590959156475
0.00782126921570245
0.00791152471995333
0.00802616732272845
0.00815489521156489
0.00828250534955817
0.00839460780167337
0.00848114757113794
0.00853687792996118
0.00856485532313749
0.00856531131168253
0.00854321762169847
0.00850473237801073
0.00845093636698253
0.00838278614980798
0.00830125814685283
0.0082100614983515
0.00810107454993958
0.00798232585108518
0.00784573914378371
0.00769827099713328
0.0075161373534704
0.00730604868314807
0.00705561581282463
0.00676021626497079
0.00642127475642273
0.00604552534897293
0.00563537948079548
0.00520019445784326
0.00474045094555364
0.00426547665957319
0.00378866532962771
0.00331331918853567
0.00286095910197166
0.00244753519168467
0.0020865852096404
0.00177078694815809
0.00149022596060602
0.00123789235212544
0.00100661019837753
0.000790778017365933
0.000593778196565083
0.000421105894577893
0.000250874089020635
0.000166655660505129
0.00139463815089477
0.0076682418489403
0.020432399903884
0.0266563605266709
0.0278208433202004
0.0270865942268577
0.0258503485694489
0.0245783353748241
0.0233596979694431
0.0222394987035593
0.0211990591705084
0.0202447879488902
0.0193572128280342
0.0185616345059654
0.0178422421431059
0.0171981523245684
0.0166351270487896
0.0161482654854275
0.0157345863705396
0.0153889766163081
0.0151149659371922
0.0148971788317939
0.0147375915727099
0.0146297045864415
0.014567367824154
0.014551627155093
0.0145712800519517
0.014624539065749
0.0147065625570442
0.0148137541711992
0.0149425441874979
0.0150870116613404
0.0152432530929138
0.0154090776959458
0.0155787648606097
0.0157493737273299
0.0159176593588543
0.0160493200022668
0.0161048625403456
0.0160920944756217
0.0160265092337011
0.0159215957572529
0.0157867614232203
0.0156295701893757
0.0154559135640976
0.0152705917609103
0.0150774008272867
0.0148793676690101
0.0146788712711592
0.0144777877719945
0.0142775899565391
0.0140794392062794
0.0138842460144402
0.0136927076537075
0.0135053602580454
0.0133225859270231
0.0131446640744993
0.0129717612830058
0.0128039920317981
0.0126413668240516
0.0124839158739164
0.0123315237641231
0.0121842360210121
0.0120417633257313
0.011904319073763
0.011771257806564
0.0116433073098773
0.0115189542072134
0.011400297333067
0.0112835952161764
0.0111745257609256
0.0110635691624107
0.0109645879867731
0.0108650836123202
0.0107134500382343
0.0076094322476823
0.00760975263519923
0.00761024803714574
0.00761170953240477
0.00761465503726884
0.00761945963919758
0.00762631954668875
0.0076353216265844
0.00764649874398985
0.00765986490212894
0.00767544693863799
0.00769330400870825
0.00771354985438848
0.00773636219578463
0.00776200936202026
0.00779085532076024
0.00782341109741577
0.00786033923004716
0.00790266839799067
0.00795143415491478
0.0080092505367894
0.00808251399660965
0.00817970103919317
0.00830163612008748
0.00844045469369535
0.00858278885198275
0.00871402295843541
0.00882264806605652
0.00890180502306036
0.00895223536549089
0.00897404968506256
0.00897166927819241
0.00895142389971224
0.008915284793229
0.00886561183111669
0.0088041339203239
0.00873543477447223
0.00865390330891749
0.00856742406357108
0.00847053444765325
0.00836923287653852
0.0082446635676944
0.0081015600988157
0.00792915462324545
0.00772199927120855
0.00747802212462145
0.00719792263331586
0.0068772301217974
0.00651684142051187
0.00611043890311105
0.0056588539287878
0.0051733518769378
0.00465857411577803
0.00414354408849614
0.00365493509550447
0.00321791704971523
0.00283065717461301
0.00248241087011803
0.00216154602759737
0.00185422196408609
0.00154712161383032
0.00124307278764361
0.000948022335254275
0.000604584925676464
0.000524290848328209
0.00318180347954133
0.0116873163992682
0.0231614377400248
0.0291677185163384
0.0303339206557162
0.0295336342540852
0.0281977078936472
0.0268256242922146
0.0255171823782975
0.0243169124610125
0.0232028571041198
0.0221784233754184
0.0212220306656379
0.0203616969085377
0.0195787355854358
0.0188744705511903
0.0182551207763556
0.0177158917347768
0.0172539161643688
0.0168644770202886
0.0165513097031153
0.0162977775228691
0.0161073168906853
0.0159716051588559
0.015885284464314
0.0158486621995709
0.0158500607288521
0.0158876371964177
0.0159559852273877
0.0160512776427297
0.0161696029875043
0.0163046093273411
0.0164521691815184
0.0166097918246711
0.0167714936167285
0.0169338931474135
0.0170935667274837
0.0172153536824544
0.0172584574148591
0.017229847300278
0.0171462088203078
0.0170218250367986
0.0168667337683739
0.016688805237432
0.0164941865057021
0.0162878605736919
0.0160737872094632
0.0158551231008676
0.0156343521995382
0.0154134300331342
0.0151938846579499
0.0149769096921952
0.0147634321215897
0.0145541537689928
0.0143496086718244
0.0141501707035868
0.0139561095698103
0.0137675785721911
0.0135846805038325
0.0134074096520929
0.0132357855375981
0.0130696680200364
0.0129090991804751
0.0127537510983831
0.0126038551526164
0.0124586915271175
0.0123190609914942
0.0121832887211554
0.0120536826635387
0.0119261317099477
0.0118068270960044
0.0116855131580727
0.0115765513425161
0.0114689641860195
0.0113019751055922
0.00764548650033347
0.00764606638280772
0.00764676831039009
0.0076481129028879
0.00765054577374879
0.00765449526172851
0.00766028013121997
0.00766811992260432
0.00767817059325852
0.00769055279344738
0.00770538410451397
0.0077227992469282
0.00774297863362525
0.00776615933285539
0.00779267282340805
0.00782294875127907
0.00785759010319299
0.00789736050152165
0.00794346280972319
0.0079972157668589
0.00806156959657689
0.00814217415272479
0.00824618508436616
0.00837628823716944
0.0085286272432666
0.00869359553077506
0.00885744097054917
0.00900677206945988
0.00913131981848281
0.00922725080611868
0.00929266872678521
0.00933013753460029
0.00934526124678823
0.00934055493295443
0.00931972007066025
0.00928529926573868
0.00924257053478117
0.00918849949246475
0.00913063748604296
0.00906633256606847
0.00900066174572681
0.00891940636557683
0.00882593932423128
0.00871178925989732
0.00857223314018489
0.00840597448962719
0.00821320415445679
0.00799001282722513
0.00773504062114851
0.00744127683022036
0.00710297245415279
0.00672024983157037
0.00628364995697813
0.00580633219293626
0.00530936177052459
0.00483095815136326
0.00439243492380857
0.00400308572963315
0.00366193655347806
0.00335542995213216
0.00305505292875964
0.00275221945185244
0.00240561479365082
0.00177077444546376
0.00222500762478097
0.0068149854841142
0.0152933707824753
0.0250981859436137
0.0314157158661101
0.0331550423046214
0.0325653656134756
0.0312363408465082
0.0298072074652455
0.0284320205638398
0.0271662680600965
0.0259884867597619
0.0248981690067528
0.0238717142888876
0.0229403418736607
0.0220837070819183
0.0213056033959842
0.020614193735919
0.0200056448278653
0.0194776688318446
0.0190266300882591
0.0186569143876478
0.0183506136533881
0.0181131067879021
0.0179340983973924
0.0178091865688063
0.0177378328547938
0.0177078426263096
0.017717236857628
0.017759988016422
0.0178319257560746
0.0179287004103958
0.0180434433870064
0.0181717055837542
0.0183105990668354
0.0184538306844339
0.0185973617696699
0.0187372785939003
0.0188377759348207
0.0188568708183716
0.0188002144357773
0.0186858746294346
0.0185293081637877
0.0183414304277479
0.0181305311169068
0.0179030557861823
0.0176641869770124
0.0174180539517226
0.0171679440365481
0.016916442960514
0.0166655795607599
0.0164169287435175
0.016171706493399
0.0159308443492293
0.0156950353354513
0.0154647973697466
0.0152404815475449
0.0150223333364128
0.0148104788057297
0.0146049947640536
0.0144058472037964
0.0142130310516681
0.0140263730251359
0.0138458951779038
0.0136712298786574
0.0135026009030564
0.0133392324583336
0.0131819427441519
0.0130289686485646
0.0128826804186378
0.0127388309119576
0.0126037001624332
0.0124670110010675
0.0123424896659516
0.0122216741334895
0.0120329757586942
0.00760308846054259
0.00760379505056655
0.00760455638593902
0.0076057988261233
0.00760789059185259
0.0076112394326764
0.0076161978376143
0.00762304458548136
0.007632001745307
0.0076432525002649
0.00765697011673537
0.00767333587904383
0.00769257013315558
0.00771494228676862
0.00774081478005123
0.00777064377488457
0.00780506829576762
0.00784488418927096
0.00789135485969758
0.00794589701830695
0.00801154705795696
0.00809363800984864
0.00819866266796916
0.00833000513813739
0.0084860272072151
0.00865995373125831
0.00883980743588739
0.00901214041200003
0.00916508704122629
0.00929185075415823
0.00938848373769882
0.00945571984560487
0.00949804957345647
0.00951772553039092
0.00951885543321497
0.00950432647791131
0.00947962462525327
0.00944293525266082
0.00940165101759776
0.00935440224310745
0.00930583280950483
0.0092435180083237
0.00917026152555196
0.00907820963673775
0.00896253515795412
0.00882218203107142
0.00865733230592195
0.00846503155010164
0.00824451587746304
0.00799094756314963
0.00770092671629644
0.00737574495285568
0.00700659676599787
0.00659795043596843
0.0061549152195752
0.00570087114387135
0.00525670204693338
0.00484438703226311
0.00448187870414631
0.00417552473647173
0.00390853377716087
0.00368834978623022
0.00344978747422432
0.00280667258499872
0.00362373351841589
0.00825044894922604
0.0158936724890882
0.0249310444741064
0.0317507617373604
0.0342412660672952
0.0340506658963618
0.0328699548590442
0.0314844735941901
0.0301177658011346
0.0288469145150465
0.0276572251786221
0.0265481893434145
0.0254960018606909
0.0245340983384662
0.0236425195823165
0.022826364012641
0.0220957300571818
0.0214479104435692
0.0208812668332401
0.0203930328576435
0.0199884420858499
0.01964889651795
0.0193810137812067
0.0191736509520606
0.0190228183502338
0.0189277419990829
0.0188758538596381
0.018865121919171
0.0188892244748596
0.0189437778857873
0.0190242122369936
0.0191233568819822
0.0192365554307198
0.0193607307083672
0.0194893878978533
0.0196180791846374
0.0197427333448879
0.0198272731339046
0.0198288998381735
0.0197526073587002
0.0196172347555995
0.0194389837865182
0.0192293003086913
0.0189967314944307
0.0187478811845024
0.0184880289301097
0.0182213792193789
0.017951274245183
0.0176803394438414
0.0174106293041074
0.0171437315928957
0.016880863461127
0.0166229490746375
0.0163706674547462
0.0161245193189088
0.015884835411326
0.0156518406217757
0.0154256392620708
0.0152062876795942
0.01499373038618
0.0147879438740779
0.0145887318479152
0.0143961014005958
0.0142096589385909
0.0140296206663605
0.013855177530474
0.0136871523154953
0.0135237364282829
0.0133673191831649
0.013213603547059
0.0130688600569524
0.0129229109565574
0.0127888912330084
0.0126603731292987
0.0124589748581341
0.00749917990315246
0.0074998639811955
0.00750070829557371
0.00750187238540711
0.00750361308055839
0.00750625703170863
0.00751013685260026
0.00751555927712039
0.0075228019262727
0.0075321135547194
0.00754373348747247
0.00755790197699975
0.00757489122778228
0.00759501145745047
0.00761866068817786
0.00764631995601971
0.00767865674231693
0.00771648555530578
0.00776109710339338
0.00781398701505402
0.00787817550305069
0.0079586039791498
0.00806085405349605
0.00818858420444784
0.00834235151997183
0.00851920026773132
0.00871104556284587
0.00890654124304101
0.00909358156916394
0.00926223412648908
0.00940530171814738
0.00952007477552858
0.00960827179810438
0.00967070967824504
0.00971113424991442
0.00973250846708976
0.00974006428314199
0.00973353575222238
0.00971983540240038
0.00969921625035738
0.00967552402012306
0.0096386160384512
0.00959054433923791
0.00952405077782356
0.00943395569035866
0.0093191285573044
0.00917935045154754
0.00901215526226266
0.00881701345680872
0.00859056665382342
0.00833189765635536
0.00804488802675605
0.00772721601880616
0.00738571267189401
0.00702401360707688
0.00665114024778631
0.006269714143171
0.00588525538625386
0.00551000568621504
0.00516458759900641
0.00485910862030202
0.00464670534593068
0.00451464514913466
0.00414140752541939
0.00480812528233636
0.00810376234871459
0.0140458011668854
0.0220261966440702
0.0297742116351296
0.0340867940526906
0.0351639174845553
0.0346221513610302
0.0335354116587039
0.0323209104122487
0.0311340545114759
0.0299931463708534
0.0289070182507689
0.0278572521226688
0.026880507132028
0.0259613765924116
0.0251071155824285
0.0243315331823442
0.0236349718318534
0.0230174481362056
0.0224780503365293
0.0220235593628886
0.0216355205069551
0.0213217107383179
0.0210708515608152
0.0208792712245621
0.0207460569177446
0.0206584590534365
0.0206141494896142
0.0206066328009096
0.0206311938329117
0.0206829713464135
0.0207544734024538
0.0208407043850376
0.0209382943979416
0.0210405317619705
0.0211423358342877
0.0212390615493317
0.0212948880224014
0.0212667121694736
0.0211581626188061
0.0209887601211119
0.0207757671273924
0.0205314412112336
0.0202647434992388
0.0199825027596321
0.0196901183043325
0.0193918732926602
0.0190911594239946
0.0187906314762424
0.0184923563204221
0.0181979189151633
0.017908520400177
0.0176250590363212
0.0173481805997322
0.0170783491966045
0.016815855987117
0.0165608864337517
0.0163135056017453
0.0160737315225813
0.0158414726915592
0.0156166695684584
0.0153990932546075
0.015188715065227
0.0149851156539714
0.0147884706059913
0.0145979623450716
0.01441434813055
0.0142358635662307
0.0140647422338514
0.0138969022459384
0.0137381414216354
0.0135790973348991
0.0134312978837365
0.013290780224548
0.0130727911441746
0.00742214950717151
0.00742302997860759
0.00742392985035439
0.00742508436812338
0.00742669242485942
0.00742902332797858
0.00743237391474632
0.00743704012955861
0.00744330898132438
0.00745145039733212
0.00746173081706491
0.00747441727170339
0.00748980734286657
0.00750823084728004
0.00753010261147635
0.00755591211226049
0.00758633517876142
0.00762218401222362
0.00766474524087166
0.00771552463705608
0.00777747106216804
0.00785530250904149
0.00795410398799985
0.00807744898981438
0.00822668546212512
0.00840071446216659
0.00859396140325202
0.00879718618791857
0.0089993104253491
0.00918956473203587
0.00935916035750376
0.00950321437172258
0.00962136846403402
0.00971297938724877
0.00978104414165146
0.00982818392231831
0.00985921453232468
0.00987450358939993
0.00988064030083076
0.00987862920825482
0.00987189571157526
0.00985139792876651
0.00981895872281102
0.00976757114313941
0.00969189327398746
0.00959072964753609
0.00946359815452894
0.0093080989814574
0.00912370946622057
0.00890741336688481
0.0086590875268309
0.00838336949300683
0.00808036816627866
0.00775853278834114
0.00742408736393103
0.00708582553230181
0.00674468826258125
0.00640022364459716
0.00605323473862352
0.00571249420974158
0.00538215717658906
0.00511549149371052
0.00494340719905147
0.00467393228714232
0.00501907218569291
0.00715321100495813
0.0116561998501563
0.0186914085410579
0.0268758395890159
0.0326594661131957
0.034992158353902
0.0351819465686232
0.0344788508786093
0.0334767138180301
0.0324173859850203
0.0313590578779796
0.0303258003585435
0.0293071019028005
0.0283435384140957
0.0274244847331295
0.0265594354773123
0.0257652598460845
0.0250450316577982
0.0244003812458986
0.0238318796967595
0.0233478443414046
0.0229301180168603
0.0225873662094566
0.022308563414924
0.0220902017412959
0.0219315546619247
0.021819747305514
0.0217523270102102
0.0217227568917496
0.0217261441150113
0.0217574928622432
0.0218091194808289
0.0218758096184604
0.0219540569188536
0.0220369951499145
0.0221191437637676
0.0221957084792853
0.0222310917539634
0.0221818500296224
0.0220509345304577
0.0218582484153168
0.0216217061545012
0.0213540652382787
0.0210645545386307
0.0207601373262154
0.0204462764004473
0.0201272873967433
0.0198065762691587
0.0194868001346572
0.0191700192993312
0.0188578046149652
0.0185513367095437
0.0182514888475532
0.0179588782950211
0.0176739396668257
0.0173969334065622
0.0171280152012096
0.0168672206512379
0.0166145400691298
0.0163698549347321
0.016133081083878
0.0159039644765618
0.0156824547068943
0.0154681091364234
0.0152610839625512
0.0150605420554236
0.0148672180006193
0.0146793426180201
0.0144990995250995
0.0143224644378484
0.0141550547470251
0.0139878490861129
0.0138315254976931
0.0136841523138077
0.0134551787985729
0.00729846027252661
0.00729924016494142
0.00730023242984842
0.00730142611952963
0.00730296059086291
0.00730503123464226
0.00730787069896522
0.00731173193579496
0.00731688263070267
0.00732359237426003
0.00733214071648663
0.00734281328794329
0.00735592861179145
0.00737183351819107
0.00739095658966128
0.00741379188225019
0.00744101414966688
0.00747342475615769
0.00751227554116356
0.00755906936085992
0.00761659426895027
0.00768921276413295
0.00778135168309951
0.00789625210513959
0.0080357198595097
0.00820030078029559
0.00838742456164165
0.00859125171521182
0.00880354725570034
0.00901431929618489
0.00921401686714342
0.0093954253467063
0.00955517081465103
0.00969004502465401
0.00980112266285128
0.00988984072953092
0.00995975575990174
0.0100117090685764
0.0100513950279946
0.0100805739740313
0.0101018104952056
0.0101076757948635
0.0100995551266387
0.0100709081206492
0.0100163704580073
0.00993465633254186
0.00982494089158835
0.00968485746143592
0.00951381653097591
0.00930905656444863
0.00907110577127021
0.00880505096265093
0.00851303517078485
0.00820446885440409
0.00788785019357068
0.00757270522742235
0.00726156447466424
0.00695448755381097
0.00665009983847784
0.00634873101288555
0.00604423643543254
0.00575145430502967
0.00549849310281692
0.00522490040934546
0.00516673375811548
0.00583447260228229
0.00784670178590343
0.0123142386866632
0.0196712625883628
0.0274440448596142
0.0324281405241809
0.0345009390258995
0.0348950649088859
0.034529050743493
0.0338600125483712
0.0330596016434646
0.0322019419075496
0.031303784241645
0.0304160721422742
0.0295410110184831
0.0286942822793025
0.0278984963757485
0.0271627397088919
0.026492449371643
0.0258914020271623
0.0253705083724625
0.0249138135483686
0.0245307233993597
0.0242117560198491
0.0239536979879657
0.0237561953593073
0.0236067982261826
0.0235026986204597
0.0234375450608792
0.0234062443064835
0.0234036320700942
0.0234219060025876
0.0234555266674144
0.0235007370603737
0.0235505394775273
0.0235988686146967
0.023640293700682
0.0236402320896021
0.0235559385508661
0.0233889722446522
0.0231592286545404
0.0228854215288283
0.0225810411311415
0.0222557490125442
0.0219167197749111
0.0215695045948127
0.021218449492285
0.020866960444698
0.0205176766780091
0.0201726292580052
0.0198333507398661
0.0195009766550799
0.0191763304628649
0.0188599764282364
0.0185522957780754
0.0182534952160071
0.0179636784668533
0.0176828313861264
0.0174108960977802
0.0171477105670157
0.0168931460767014
0.0166469127751374
0.016408915396878
0.0161786884760545
0.0159563325801781
0.0157410178118102
0.0155333813214916
0.0153317422874287
0.015138055940391
0.0149486170355513
0.0147684192799348
0.014589426428104
0.0144206668035892
0.0142619514268259
0.0140196009145983
0.00721548564732084
0.00721648951692033
0.00721754172202756
0.00721877793951596
0.00722031044625431
0.00722229728556775
0.00722493276366654
0.00722843708053552
0.00723305491422852
0.00723904256908804
0.00724667519803535
0.00725623879668182
0.00726805587114187
0.00728247617563587
0.00729993093666376
0.00732091127789906
0.00734608606642135
0.00737624249992451
0.00741260293977977
0.007456646926634
0.00751103884532915
0.00757992200738385
0.00766735816675533
0.00777633920888562
0.00790872209589057
0.00806563412290283
0.0082458954210615
0.008445586191579
0.00865853537838568
0.00887603049230373
0.0090889325180944
0.00928928067938736
0.00947222437753792
0.00963292664079662
0.00977104113035185
0.00988690926329238
0.00998303083919804
0.0100601455165859
0.0101232483587661
0.0101742708085158
0.0102152161809886
0.0102393987117758
0.010248050863144
0.0102348517610393
0.0101945024101353
0.0101257130230713
0.0100274906848423
0.00989745944857547
0.0097350118837792
0.00953746616520405
0.00930561202587231
0.00904472904625878
0.00875777256757711
0.00845449575966914
0.00814428935915326
0.00783699884300871
0.00753593720559124
0.00724174220275851
0.00695374112003764
0.0066713267025575
0.00638944138126919
0.00610945035449403
0.00584636906897392
0.00556595335657887
0.00536468495760609
0.00547100038922237
0.00621240682177497
0.00865526278349553
0.014146461589
0.022265596035321
0.0291314759046218
0.0329072680860107
0.034393180416288
0.0346826841400827
0.0344198902058273
0.0338881897299479
0.0332160340558866
0.032449371091883
0.0316515823756704
0.030836419820173
0.0300261324180784
0.0292483090920947
0.0285170708208593
0.0278413105622153
0.0272274703932226
0.0266888628123511
0.0262112912393553
0.0258050851814501
0.0254620162950349
0.0251792524851456
0.024956964202597
0.0247830197762631
0.0246545403382832