/*--------------------------------*- C++ -*----------------------------------*\
| =========                 |                                                 |
| \\      /  F ield         | OpenFOAM: The Open Source CFD Toolbox           |
|  \\    /   O peration     | Version:  3.0.1                                 |
|   \\  /    A nd           | Web:      www.OpenFOAM.org                      |
|    \\/     M anipulation  |                                                 |
\*---------------------------------------------------------------------------*/
FoamFile
{
    version     2.0;
    format      ascii;
    class       volScalarField;
    location    "0";
    object      nut;
}
// * * * * * * * * * * * * * * * * * * * * * * * * * * * * * * * * * * * * * //

dimensions      [0 2 -1 0 0 0 0];

internalField   nonuniform List<scalar> 
14000
(
5.84950120689154e-07
5.78223060776842e-07
5.76739041385357e-07
5.76267296144627e-07
5.76946088715474e-07
5.78886651252492e-07
5.82105757913261e-07
5.86570972634056e-07
5.92251899672823e-07
5.99136966384817e-07
6.07248278335581e-07
6.16652167179506e-07
6.27468179358785e-07
6.39878935644277e-07
6.541440893688e-07
6.70617747818722e-07
6.89777035016591e-07
7.12268715782487e-07
7.38922324600417e-07
7.70618684810941e-07
8.09485995607032e-07
8.66117665190209e-07
9.62897086506544e-07
1.11301929506334e-06
1.31358301921643e-06
1.54359141591606e-06
1.75994185554653e-06
1.91767932947658e-06
1.98031808076339e-06
1.9513303870055e-06
1.82969117575242e-06
1.64349557418662e-06
1.42462746026839e-06
1.19416216709499e-06
9.69673542705489e-07
7.68736319858983e-07
6.0055540532094e-07
4.60871347332531e-07
3.53306610387343e-07
2.70267119008773e-07
2.08528532738315e-07
1.5943248830495e-07
1.2163107013869e-07
9.14272548013542e-08
6.75644328542277e-08
4.97716505353654e-08
3.71159685909909e-08
2.81965053221583e-08
2.18077915084607e-08
1.70129755450586e-08
1.32393641135825e-08
1.01425384868757e-08
7.58272203960281e-09
5.58833109401491e-09
4.13101469997385e-09
3.09006887738204e-09
2.31502933087135e-09
1.713810456207e-09
1.24796078776672e-09
8.86424593803129e-10
6.00669344234923e-10
3.80439640644517e-10
2.19537328041565e-10
9.43581447346088e-11
1.01792629313808e-10
1.85633644503185e-09
1.33288064136115e-08
1.13798560402441e-06
1.38643014063722e-05
1.74319797889066e-05
1.74223633401266e-05
1.79659337408476e-05
1.95192709606178e-05
2.17518737757046e-05
2.48830167603464e-05
2.84863740511514e-05
3.27513826407666e-05
3.73366597903543e-05
4.30055593289766e-05
4.84299768567488e-05
5.46193605612906e-05
6.10998402231229e-05
6.75006732861824e-05
7.37824957709973e-05
7.98295605875835e-05
8.53347491213679e-05
8.93749885872037e-05
9.34159358576997e-05
9.52486358824669e-05
9.65951454041118e-05
9.6364704185946e-05
9.47355122232523e-05
9.24316186942884e-05
8.8911306216317e-05
8.48002586181273e-05
8.00301840570271e-05
7.47921478150999e-05
6.93963643293282e-05
6.38549933479632e-05
5.82682331953804e-05
5.2798974683953e-05
4.74413265038306e-05
4.18336673467686e-05
3.67220315318978e-05
3.26373220083724e-05
2.92282797452648e-05
2.63535352515356e-05
2.38774010296305e-05
2.17311650492329e-05
1.98536021496439e-05
1.82006875372333e-05
1.67348267106662e-05
1.54265402416188e-05
1.42518317492031e-05
1.31915937766238e-05
1.22307154622939e-05
1.13573196778079e-05
1.05615280052472e-05
9.83499905865496e-06
9.17053624951752e-06
8.56183172375758e-06
8.00327917986512e-06
7.48995818948904e-06
7.01742712752849e-06
6.58197903582491e-06
6.18005998744702e-06
5.80879070881909e-06
5.46523503887511e-06
5.14740375825434e-06
4.85265809068338e-06
4.57990814712171e-06
4.32630748434508e-06
4.09202112581218e-06
3.87315977491628e-06
3.67209950830165e-06
3.48231952052362e-06
3.31000498669196e-06
3.14805425427656e-06
2.9865814890916e-06
2.86680569680507e-06
3.0212612110978e-05
3.01612735257404e-05
3.01228045108548e-05
3.01261783903934e-05
3.01739907521497e-05
3.02681257199977e-05
3.04091208109814e-05
3.05956574953787e-05
3.08266091619277e-05
3.11015703494477e-05
3.1421284079701e-05
3.1787987874723e-05
3.22056787592075e-05
3.26803793023251e-05
3.32205307526036e-05
3.38374379791179e-05
3.45460413153806e-05
3.53662833788085e-05
3.63231016933863e-05
3.74437342558147e-05
3.87982016623997e-05
4.06623522392866e-05
4.35161692561558e-05
4.74440756080136e-05
5.20551831963913e-05
5.66775695856908e-05
6.06018651360555e-05
6.32596753071799e-05
6.42667484158591e-05
6.36858025014289e-05
6.14874187579404e-05
5.79163101030597e-05
5.33410800696376e-05
4.79899288602655e-05
4.21062929161718e-05
3.60486580693324e-05
3.0157878140543e-05
2.45424282720122e-05
1.95337239578055e-05
1.52013094222478e-05
1.1633806334309e-05
8.68638804661349e-06
6.38088688423279e-06
4.61685677714751e-06
3.2977094313828e-06
2.34886806956173e-06
1.68504316151972e-06
1.22420171260805e-06
9.03352561201824e-07
6.74305015808992e-07
5.05606640340167e-07
3.77529620422934e-07
2.78867486338074e-07
2.05067502748366e-07
1.51743250726592e-07
1.13324304276338e-07
8.46857452498171e-08
6.27137393720366e-08
4.58759874586406e-08
3.28478082434822e-08
2.25240402610539e-08
1.45320788442014e-08
8.63093593861404e-09
3.93633620791241e-09
3.85445595569964e-09
9.68097608372954e-08
7.46463607085603e-07
4.84354621060987e-05
0.000174144780561592
0.000208039890122768
0.000212844066046788
0.000219468497394406
0.000232637111985296
0.000250705904891243
0.000274559437671097
0.000301544526878548
0.000331955099932341
0.000363689918799379
0.000399960205892746
0.000434375339714623
0.000470666782218655
0.000507019894380537
0.000541775326544361
0.000574798925667587
0.000605944729473206
0.000634410205987788
0.000657366694753154
0.000679576449253718
0.000694523667434175
0.000707132505333377
0.000714301257615178
0.000715996218379955
0.000714311656427685
0.000707251901505292
0.000696401921281734
0.000681279584185152
0.000662123654542201
0.000639895843968896
0.000614575238411165
0.00058636730726888
0.000556007248372376
0.000523679461464959
0.000486994738212306
0.000449045396794733
0.000414598084357107
0.000383643285923238
0.000355951070027166
0.000331007846249989
0.000308512894847408
0.000288177171134183
0.00026976776017742
0.000253069005434797
0.000237892435011133
0.00022406989093465
0.000211454387420419
0.000199917608811608
0.000189348273090632
0.000179648627350692
0.000170732197846902
0.000162522490021068
0.000154950927781817
0.000147956464050366
0.000141484186610298
0.000135485245641497
0.00012991508260924
0.000124735115261385
0.000119909791688192
0.000115409412930271
0.000111203452179213
0.000107271289457453
0.000103583181701383
0.00010013110407649
9.68768881073242e-05
9.38371387774403e-05
9.09422669876147e-05
8.82695948576641e-05
8.56482739393289e-05
8.3361173002466e-05
8.08109346727435e-05
7.82285565163053e-05
9.1684536947718e-05
9.15709062139457e-05
9.14909830012839e-05
9.14928797444942e-05
9.15946645544816e-05
9.17992582656953e-05
9.21085839308643e-05
9.25206727747926e-05
9.30335853091349e-05
9.36468351376638e-05
9.43622200777308e-05
9.51845597980215e-05
9.61223258941431e-05
9.71881201887806e-05
9.83996007982785e-05
9.97801464922998e-05
0.000101360681864291
0.000103182021077958
0.000105296013256381
0.000107759326579
0.000110709153443671
0.000114575569403662
0.000120275409801586
0.000128063614374763
0.000137252553905547
0.000146704815829178
0.000155140525858907
0.000161606390089452
0.000165210364212768
0.000165911670878852
0.000163502029834747
0.000158062300503833
0.000150154176943508
0.000140023740649163
0.000128061040978632
0.000114655472897831
0.000100836991687142
8.65414467730049e-05
7.28753717899608e-05
5.99594297665339e-05
4.85044992260595e-05
3.81613092660348e-05
2.93376137904333e-05
2.20560306935802e-05
1.62252323902053e-05
1.17647005859652e-05
8.48490009626265e-06
6.11932056674785e-06
4.43398034256779e-06
3.23026132297352e-06
2.36625983317568e-06
1.74066722148891e-06
1.28017388299147e-06
9.43825146924638e-07
7.01958917620429e-07
5.27316088462331e-07
3.9745011223593e-07
2.97965619425998e-07
2.21038773246442e-07
1.60293686684414e-07
1.11188009875729e-07
7.28140186349803e-08
4.42039351347697e-08
2.08908942561005e-08
2.05433883246186e-08
5.44587516788635e-07
4.21286021496582e-06
0.000125895274274124
0.00031172559134864
0.000378320276882272
0.000397472523091724
0.000413254453421085
0.000435763904989452
0.000464510143740305
0.000500360033434968
0.000540515937187952
0.000584601014492984
0.000630291795723066
0.000680563821556099
0.000729261473946695
0.000779265239549323
0.000829338487451539
0.000877712861809756
0.000924112798845364
0.000968505616299763
0.00101015111566809
0.00104618223323695
0.0010809906512715
0.00110858739621121
0.00113314492083506
0.00115195226033302
0.00116445672266761
0.00117259610995956
0.00117436056228615
0.0011710055733692
0.00116197314626599
0.00114722663644958
0.00112759917793361
0.00110307436239137
0.00107365020073712
0.00104006083150266
0.00100260864635876
0.00095805904813016
0.000908024077371526
0.000858571826483656
0.000811622060865454
0.00076775990738162
0.000726820129893083
0.000688656013656712
0.000653086821103901
0.000619953415399809
0.000589093902715747
0.000560353890902088
0.000533583623517459
0.000508642217921382
0.000485396899634966
0.000463723699547527
0.000443507355130503
0.000424639838448794
0.000407021840687757
0.000390559433066922
0.000375167439041725
0.000360764215187934
0.000347278304682182
0.000334636441214968
0.000322782062231538
0.000311647186526329
0.000301195845761758
0.000291351130835676
0.000282113259831081
0.000273367255363728
0.000265194355825766
0.000257365688772534
0.000250164730663545
0.000243046976621533
0.000236828452438641
0.000230094664730591
0.00022512449883604
0.00021829393463919
0.000212382958084563
0.000230211287692954
0.00023017853656003
0.000229993601611848
0.000229851460791394
0.000229830617225537
0.000229964918654211
0.000230272290706218
0.000230760287433782
0.000231431670756219
0.000232288401221752
0.000233333979966807
0.000234574927343838
0.000236022472235289
0.000237693109527588
0.000239610795908609
0.00024180677672207
0.00024432368043731
0.00024721581271174
0.000250557011231536
0.000254413916889207
0.000258987993227605
0.000264627249166824
0.00027282464132555
0.000284526731431435
0.000299331459151793
0.000316056163676379
0.000332830949710464
0.000348382786025132
0.000360886667004752
0.000369847806759334
0.000374615225289315
0.00037454827844935
0.000370057993414848
0.000360930960174319
0.000347649532277173
0.00032937129328277
0.000308545302935904
0.00028339654670571
0.000257032445272364
0.000228229210160242
0.000200626909693017
0.000172160734460046
0.000144805418956306
0.000118982527223379
9.52429365778667e-05
7.42811302119629e-05
5.67648109739257e-05
4.25367607427224e-05
3.13973723259444e-05
2.28207851733725e-05
1.63810562572326e-05
1.17147048747579e-05
8.37179808833847e-06
6.04258441449636e-06
4.45559706287082e-06
3.37654259927596e-06
2.6159947894985e-06
2.04516877427553e-06
1.59324765168555e-06
1.21749463216048e-06
8.95229061980466e-07
6.26715183008595e-07
4.05106288460701e-07
2.02763136768393e-07
3.59140743158395e-07
6.01397600266498e-06
4.06534829227503e-05
0.000233828050736083
0.000453945104398262
0.000569472925490848
0.00062261640725628
0.000659785337931462
0.000698366949938987
0.000742013112114503
0.000792078598035757
0.000847162247216597
0.000906144517574709
0.000967311021434245
0.00103234853731524
0.00109718304383984
0.00116277098146559
0.0012287683568246
0.00129365149425658
0.00135686487541744
0.0014184862649159
0.00147778629080223
0.00153240844113365
0.00158534658000677
0.00163228368855309
0.00167576471796475
0.00171392942977969
0.00174576717682949
0.0017726048271971
0.0017928461096279
0.00180712358214712
0.00181491113901432
0.00181587871589239
0.00181052039379152
0.00179888139069853
0.00178072964874302
0.00175668862697129
0.0017270670353495
0.00168843358887432
0.00163940492841222
0.00158513459526543
0.00152982130933166
0.00147552574700751
0.00142293384862698
0.00137231154580552
0.00132375282504505
0.00127728974699894
0.00123291202197351
0.00119058453282587
0.00115025235680594
0.00111184981543813
0.00107530249322633
0.00104052978786506
0.00100744919238766
0.000975975624466102
0.000946028113749993
0.000917523104775414
0.000890386449483066
0.000864537857031835
0.000839915627866047
0.00081643723772002
0.000794062883699044
0.00077269326089215
0.000752337048281654
0.000732835262706073
0.000714311275824694
0.000696435037323482
0.000679625026217686
0.000663084440829157
0.000648011278472486
0.000632347942611357
0.00061937739733198
0.000603643850215001
0.000593920269872523
0.000577104845474234
0.000564032927845417
0.000335451682355791
0.000335239196805353
0.000334981352025721
0.000334704375417235
0.000334504194486101
0.000334438952781984
0.000334544985307332
0.000334843906410805
0.000335347852520074
0.000336064583032157
0.000337001047589848
0.000338165208578547
0.000339568749962639
0.000341227324286567
0.000343164143729949
0.000345408248835545
0.000348001340639852
0.000350993150826847
0.000354460410947899
0.00035844961466466
0.000363193132687751
0.000368901329136525
0.000377266993416966
0.000389633382729404
0.000406043814728306
0.000425680790666965
0.000446626451798089
0.00046759956674979
0.000486364868672978
0.000502109021335769
0.000513924265148875
0.000520751665848921
0.000522824786532601
0.000519535903143001
0.000511532267959428
0.000496978230385203
0.000479008952915694
0.000454458578901128
0.000427469658669876
0.000395136545664939
0.000363009023622893
0.000327233175041286
0.000290553723918402
0.000252932594274583
0.000215035426110396
0.000177899827993667
0.000143541710295839
0.000112578415680024
8.59888495481428e-05
6.37273160621566e-05
4.57752907418804e-05
3.22220264248824e-05
2.23417274125345e-05
1.55833798595433e-05
1.11554911696412e-05
8.31249761486916e-06
6.43582493168255e-06
5.11318934024391e-06
4.10769081676147e-06
3.27519840941362e-06
2.53540639933399e-06
1.88335794143584e-06
1.2846554661407e-06
6.7156793045977e-07
1.91669207847888e-06
1.81647474937943e-05
8.51548576767439e-05
0.00028348856408405
0.000507416041097042
0.000647804976823908
0.00072377011371294
0.000776913703872186
0.000827182552780091
0.000880864302239438
0.000939879518545257
0.00100389434820527
0.00107158325410818
0.00114175901397755
0.0012153191394393
0.00128940652611883
0.00136408257338881
0.00143932459406343
0.00151383241402264
0.00158690941764343
0.00165871021184803
0.00172844956217449
0.00179419408083168
0.00185808535305027
0.00191677249538635
0.00197196512753127
0.00202221121363524
0.00206637676286628
0.00210538895767003
0.0021379180342963
0.00216426629961538
0.00218392072312028
0.0021964200655821
0.00220204758665711
0.00220086141559292
0.00219251641783152
0.00217756757270508
0.00215621954447253
0.00212507739762856
0.00208129643575009
0.00202897746504192
0.00197319860662066
0.00191684340527787
0.00186115944474967
0.0018067194104856
0.00175381731686076
0.00170262239156657
0.00165322900441273
0.00160568332102201
0.00155999467759645
0.00151614839925742
0.00147411057651289
0.00143383191039948
0.00139525441785408
0.00135831101750831
0.00132293564251747
0.00128905418534677
0.00125660252320561
0.0012255034331756
0.00119570495853539
0.00116711997741863
0.0011397252303417
0.00111340012298273
0.00108819252678714
0.00106388192381642
0.00104069487005861
0.00101813318925949
0.000996891223191442
0.000975721280447189
0.000956557557983883
0.000936144250221586
0.000919714031269272
0.000898668387539681
0.000886747564269653
0.00086379262032769
0.00084722358594162
0.000512794660410829
0.00051272347693484
0.000512379931429062
0.000511934332100511
0.000511467086016152
0.000511043557764593
0.000510716492182773
0.000510526739018989
0.000510503631771858
0.00051066805384596
0.000511036765840389
0.000511623129065803
0.000512441945603564
0.00051350730882074
0.000514840473061113
0.000516462008605518
0.000518408631758793
0.000520710287536777
0.000523445033417575
0.000526605674694349
0.000530463178507752
0.000535034584708058
0.000542102311252014
0.000553316024374459
0.000569313906651327
0.000590092111720927
0.00061413494933766
0.000640492137038376
0.000666693769844014
0.000691553643717271
0.000713821572563889
0.000731910946053255
0.000745797801702018
0.000754262542571532
0.000758251077728214
0.000754867313557144
0.000747839814232874
0.000732718345009707
0.000714558009926661
0.00068875884702291
0.000662250002437348
0.000629828560586416
0.000594481995945466
0.000555124771070179
0.00051166350487271
0.000463771255130379
0.000413418216434921
0.000360514098968473
0.00030671388665288
0.000252547980508521
0.00019868645742625
0.000149179994271245
0.000105395803717462
7.11162237865519e-05
4.70233986108035e-05
3.18435627283414e-05
2.26274267086874e-05
1.69918261731396e-05
1.34344498405992e-05
1.10266698582679e-05
9.19528947576206e-06
7.75868723105509e-06
6.04407647977012e-06
3.75611745139336e-06
1.37274044497949e-05
5.18980655409261e-05
0.000144375423755105
0.000322917421662571
0.000539967033932813
0.000710258885423898
0.000820744579748766
0.000900767062590146
0.000971343348527073
0.00104210465064372
0.00111602420417266
0.00119428803761337
0.00127556829223865
0.00135953773257364
0.00144608101933818
0.00153382549250697
0.00162202594501408
0.00171083627182148
0.00179934079823917
0.00188671361547262
0.0019732385178261
0.00205796909903147
0.00213971866582719
0.00221944260168273
0.00229506432062868
0.00236733217103141
0.00243520449356744
0.00249758060990636
0.00255479775664688
0.00260589854184301
0.00265078878016989
0.00268895115470583
0.00271979901993209
0.0027433225660157
0.00275953822213416
0.00276796770138817
0.00276905592851951
0.00276266838277475
0.00274551698826585
0.00271339852156599
0.0026686133618925
0.00261678064779648
0.00256173461337436
0.00250551671350075
0.00244919120178414
0.00239338391311552
0.00233849627105231
0.00228479995273821
0.00223247966121476
0.00218165557474898
0.00213240212184249
0.00208475773954893
0.00203873120602246
0.00199431168125438
0.00195146856235024
0.00191016651279091
0.00187035281198464
0.00183198474613315
0.00179499447402997
0.00175934961229394
0.00172495824910219
0.00169182714712816
0.00165980273834194
0.00162899990343076
0.00159909723234684
0.00157049430724051
0.00154241524867066
0.0015160111391354
0.0014892958181407
0.00146539984864056
0.00143914602778019
0.00141884525709732
0.00139102863793939
0.00137697285939753
0.00134590618910431
0.00132434130407782
0.000632551172939906
0.000632278929244772
0.000631897215108814
0.000631375461507356
0.000630778400980987
0.000630161803432381
0.000629576787352271
0.000629068160909051
0.000628671882754472
0.000628415143971218
0.000628320774695303
0.000628405676912869
0.000628687803378891
0.000629180298024829
0.000629904513102863
0.000630874052585278
0.000632124197091977
0.000633667018579672
0.000635585421273999
0.00063782825794719
0.00064069182139843
0.000644073836658724
0.000649775615299735
0.000659526824341424
0.000674181247377147
0.000694223222054484
0.000718510757906766
0.000746499637364499
0.000775768023935632
0.000805034052294867
0.000832893570898025
0.000857438891866305
0.00087852643081841
0.000894508036095764
0.000906518042161009
0.000911086604536029
0.00091223512862914
0.000904916864984759
0.000894581336569908
0.000875975799899234
0.000856344794883448
0.000830295854316531
0.000800786812576252
0.000766454709693469
0.000727003613470023
0.000681449810212957
0.000631389867976831
0.000575992692490131
0.00051610958955481
0.000451519694228485
0.000380870536093841
0.00030857144966368
0.000234870855740728
0.000167766842955902
0.000113070022788309
7.47391891214939e-05
5.01013783348393e-05
3.49824296895671e-05
2.5876258275137e-05
2.03064576823257e-05
1.67004842102081e-05
1.45629267346278e-05
1.20328158624344e-05
8.56104120272513e-06
2.50605832444167e-05
6.9714184988028e-05
0.000163626984867982
0.000325342795209347
0.00053450030526748
0.000720807870224734
0.000853449939395726
0.000952046528244325
0.00103704191104449
0.00111984236966803
0.0012041832040063
0.00129214741067495
0.00138252209947533
0.00147553580038795
0.00157056478840445
0.00166696340344996
0.0017637348239939
0.00186103574898405
0.00195819075642035
0.00205432901799132
0.00214984180459011
0.00224364249377916
0.00233502708991172
0.00242432227624862
0.00251009033516145
0.00259267164531242
0.00267116453687664
0.00274457235012639
0.00281291064193954
0.00287541014256315
0.00293179640801945
0.00298153497478784
0.00302399043222149
0.0030589973905819
0.00308652200481621
0.00310600796687214
0.0031178464835363
0.00312163803316493
0.00311413801193653
0.00309067561851349
0.00305246478773227
0.00300513737514945
0.00295293153980063
0.00289831321377101
0.00284264051294951
0.00278674805289453
0.00273118724148559
0.00267634575555071
0.0026224999471673
0.00256984435083099
0.00251851397524718
0.00246859742846676
0.00242014471598476
0.00237317952509849
0.00232769879943817
0.00228369115820496
0.00224112128735725
0.00219996421021856
0.00216016068122623
0.00212169507683486
0.00208447288146498
0.00204852606316922
0.00201367614027596
0.00198009280368137
0.00194737534524134
0.00191606248438449
0.00188515851568182
0.00185617782334725
0.00182655210397218
0.00180035160715646
0.00177090324409235
0.00174889173935856
0.00171713803030821
0.00170256562383413
0.0016665995639166
0.00164328010512552
0.000820956520382552
0.000820910886861083
0.000820492803872627
0.000819895790375402
0.000819167373906127
0.000818344274146321
0.00081746352475852
0.000816562018777593
0.000815674443790106
0.000814828565518076
0.000814051021972612
0.000813359641082048
0.000812776026956525
0.000812309508423768
0.000811983300859697
0.00081179766564578
0.000811790003774123
0.000811940018665276
0.000812343061266849
0.00081288091926506
0.000813877653663231
0.000815092927376971
0.000818306211273193
0.000825298312603154
0.000837018482787486
0.000854447392770593
0.000876969302735496
0.000904778499911641
0.000935838141116009
0.000969003112854598
0.00100283990768056
0.00103504670755387
0.00106534647727807
0.00109147626641759
0.00111470400596826
0.00113091418761947
0.00114426536758555
0.0011492212867645
0.00115130898542123
0.00114497347817597
0.0011370762116297
0.00112262192483251
0.00110412576822978
0.00108017223882687
0.00105037108988383
0.00101332949361931
0.00097020882228538
0.000920009374616236
0.000862660972885812
0.00079791392027303
0.000722309777298885
0.000639741836315887
0.000546168508700869
0.000447642239657982
0.000348130268304787
0.000258380115326595
0.000183630522216912
0.000126247372371349
8.57664602562885e-05
5.9240948343151e-05
4.23856060915008e-05
3.33740943273698e-05
2.65741726488004e-05
2.12332408557559e-05
3.66731699789282e-05
7.54512193755499e-05
0.000155685326046696
0.000290379810205497
0.000480699169697863
0.000685844664664032
0.000853756594231799
0.000984428331352897
0.00109472841376432
0.00119828658077007
0.00130040338862142
0.00140449628300254
0.00150977210703711
0.00161726256289881
0.00172583172064162
0.00183560744292603
0.00194556312540881
0.00205573818924597
0.00216579410500818
0.00227486616393752
0.00238350608500868
0.00249040665680983
0.00259556838644995
0.00269855054493427
0.00279865653649833
0.00289585780568082
0.00298931959955672
0.00307830474329268
0.00316242221196617
0.00324112178816892
0.00331395209336654
0.00338033895711505
0.00343962269009713
0.00349145663791211
0.003535694666652
0.00357169584694287
0.00359977062095492
0.00361905751485682
0.00362634342519797
0.00361693064857926
0.00359063320760381
0.00355261155253514
0.00350737391639167
0.0034578627939861
0.00340581913092969
0.00335236673545175
0.00329827126485821
0.00324408902860365
0.00319023143026422
0.00313700436485959
0.00308463496468898
0.00303328940944431
0.00298308288349196
0.00293409488657268
0.00288636836164819
0.00283993261392798
0.00279478341943553
0.00275092715533824
0.00270832213404967
0.00266698215299462
0.00262681282209547
0.00258788753751237
0.00254999398812864
0.00251338734306806
0.00247755079002508
0.00244323439236508
0.00240911595844929
0.0023772538236199
0.00234421848214074
0.00231546536717153
0.00228214169343758
0.00225835239257742
0.00222165328905558
0.00220687388656854
0.00216441497169331
0.00213827018244464
0.000945544702857017
0.000945277785365597
0.000944845389743243
0.000944214863244374
0.000943427648739512
0.000942510777661194
0.000941491402471315
0.000940397243528346
0.000939257532581898
0.00093809531378942
0.000936936141926121
0.000935794578937277
0.000934693155102989
0.000933635801994603
0.000932647742877994
0.000931717512666415
0.000930887356333233
0.000930111330493679
0.000929499333892183
0.000928883366857796
0.000928612557315844
0.000928348592209857
0.000929854406212985
0.000934951654824964
0.000944566546475413
0.000959887012961596
0.000980503004498664
0.00100709262130367
0.00103793191643556
0.00107211820777295
0.00110835735835477
0.00114414190130642
0.00117921276956657
0.00121088246959775
0.00124055007365766
0.00126360360784518
0.00128438138435658
0.00129694330511018
0.00130690967440009
0.00130851347298713
0.00130834649607009
0.00130163651735507
0.00129058968685878
0.00127378114188703
0.0012507793133061
0.00122004801406543
0.00118247912841215
0.00113716854811533
0.00108355333804336
0.00102169085164479
0.000947445078167886
0.000864934258681071
0.000769019011132776
0.000664968403726122
0.000554023109021731
0.000445342484958094
0.000343597788101391
0.000253274514812601
0.000178657835912301
0.000122531743977505
8.27111825311986e-05
5.92074110899169e-05
4.32508424735289e-05
3.30538356867519e-05
4.17568076454759e-05
6.9611559778602e-05
0.000133670642797089
0.000248320440373725
0.000420293363946705
0.000632917197980198
0.000824571034837092
0.000978928496309287
0.00110815709073007
0.00122693674447755
0.00134187518130661
0.00145737668779091
0.00157304101000064
0.00169044052568192
0.00180823145847168
0.0019269091205054
0.00204555552987579
0.00216411678016523
0.00228245093600965
0.00239971318910411
0.00251659016953185
0.00263160783120978
0.00274520515532954
0.00285655208463799
0.00296530134047108
0.00307131934027954
0.00317374436521329
0.00327203645037352
0.00336559955012828
0.00345398589629696
0.00353667934970404
0.00361307677846894
0.00368251997064321
0.00374457845475605
0.00379903082690699
0.00384518044010485
0.00388331341904266
0.00391227800575529
0.00392885406994969
0.00392856077592611
0.00391048457499699
0.003879364509268
0.00383971985938996
0.00379469373016389
0.00374621798001992
0.00369557388063048
0.0036436482613662
0.00359109544484415
0.00353840668219261
0.00348595488104369
0.00343402337797154
0.00338282652843278
0.00333252052864408
0.0032832208424901
0.003235000399344
0.00318791590437915
0.00314198405217463
0.00309723353340502
0.00305363439868764
0.00301122292208536
0.00296990311752794
0.00292978198500505
0.00289061793815052
0.00285273738720795
0.00281552587065059
0.00277991024977301
0.00274429539507608
0.00271119368587534
0.00267645817916107
0.00264669630904461
0.00261124661260107
0.00258704417956492
0.00254730373585163
0.00253332637148436
0.00248665906622272
0.00246026327207868
0.00113737324052715
0.00113739068398188
0.00113694819333304
0.00113628548087883
0.00113543813180594
0.00113442478720878
0.00113326232153022
0.00113196459381496
0.00113055019587018
0.00112902998251352
0.00112742346530287
0.00112573449993924
0.00112398384270341
0.00112216230623992
0.00112029725068816
0.00111835565072324
0.00111638801534416
0.00111430889088418
0.00111224727191226
0.00110997324656068
0.00110785086967348
0.0011054565048213
0.00110446409490985
0.00110675796292583
0.00111320145587686
0.00112514008153318
0.00114230055335295
0.0011658722270921
0.0011946395240033
0.00122816793297725
0.00126562220848634
0.00130439703786549
0.00134438549831991
0.00138241609560305
0.00141998202835344
0.00145190415541466
0.00148255964821174
0.00150566604832991
0.00152664941660343
0.0015397526665979
0.00155084116375086
0.0015556275963935
0.00155570797091846
0.00154969502053419
0.00153703339478925
0.00151611182252297
0.00148735011839895
0.00145009349023911
0.00140313288036841
0.00134691836268526
0.00127692527543747
0.00119738131701825
0.00110305069303313
0.00099900066877528
0.00088549893791572
0.000770114213448487
0.000655512685513753
0.000543556320215038
0.000435729884473913
0.00033661479559413
0.000245916743130515
0.000174150754932315
0.000117867960738094
7.85597680352143e-05
6.46443871344725e-05
6.69002884757657e-05
9.6994607132752e-05
0.000173817272076157
0.000297084200309513
0.000497671860768328
0.000721327372302521
0.000917937412939772
0.00108282634161365
0.00122957227397419
0.00136732735323662
0.00150247834702476
0.00163572269168903
0.00176948027216142
0.00190241976115209
0.00203538252141702
0.00216779719623936
0.00229947875503766
0.0024305295607133
0.00256019932868513
0.00268935008583413
0.0028163234234608
0.00294210345877084
0.00306547846889537
0.00318643983131132
0.00330484589085026
0.00341974114823085
0.00353088998125162
0.00363748618461117
0.00373917698242019
0.00383541249600505
0.00392554873457147
0.00400895585767521
0.00408512769052865
0.00415371992975844
0.00421398386470027
0.00426615209378465
0.00430866767658256
0.00433829646726365
0.00435127036529028
0.00434595210319876
0.00432623343640498
0.00429640123061152
0.0042597300543588
0.00421834701808331
0.00417371562627685
0.00412687050284914
0.00407858931797127
0.00402946610937752
0.00397996199130973
0.00393043574000024
0.00388116753844469
0.00383237077683117
0.00378421194746749
0.00373680770427846
0.00369025511521397
0.00364460301224729
0.00359991379976653
0.00355617755794395
0.00351346397135591
0.00347167952490981
0.00343097805509353
0.00339108474957209
0.0033524199043703
0.00331424892304914
0.0032777247248175
0.00324091202379446
0.00320689378547574
0.00317063341502177
0.00314016232656937
0.00310260942536506
0.00307833223477181
0.00303536613176136
0.00302267730865171
0.00297100855326628
0.00294389082282277
0.00126422035227932
0.00126398608898998
0.00126354218637257
0.0012628661002563
0.00126199087365947
0.0012609318001315
0.00125970217678419
0.00125830848250488
0.00125676351556412
0.00125506910099613
0.00125324037953992
0.00125127156518751
0.00124918196152176
0.00124695041239255
0.00124460675654062
0.00124209978677651
0.00123948881395276
0.00123665759728325
0.00123375375077118
0.00123050090412718
0.00122728095677314