/*--------------------------------*- C++ -*----------------------------------*\
| =========                 |                                                 |
| \\      /  F ield         | OpenFOAM: The Open Source CFD Toolbox           |
|  \\    /   O peration     | Version:  3.0.1                                 |
|   \\  /    A nd           | Web:      www.OpenFOAM.org                      |
|    \\/     M anipulation  |                                                 |
\*---------------------------------------------------------------------------*/
FoamFile
{
    version     2.0;
    format      ascii;
    class       volScalarField;
    location    "0";
    object      epsilon;
}
// * * * * * * * * * * * * * * * * * * * * * * * * * * * * * * * * * * * * * //

dimensions      [0 0 -1 0 0 0 0];

internalField   uniform 0.11; 

boundaryField
{
    bottomWall
    {
        type            omegaWallFunction;
        value           uniform 1000;
    }
    topWall
    {
        type            omegaWallFunction;
        value           uniform 1000;
    }
    inlet
    {
        type            fixedValue;
        value           nonuniform List<scalar> 
100
(
583.965251838681
115.159654259225
51.6027638390594
30.3504034493333
20.3600755648328
14.8602871939585
11.4750703365155
9.21660851048044
7.61752736192943
6.43304444830123
5.5242782469839
4.80724028056936
4.22844371364694
3.7523455021845
3.35447205001532
3.01745719338622
2.7286566045025
2.47865644518004
2.26031024536814
2.06809899184981
1.89769520081109
1.74565930593892
1.60922399964416
1.48613834114804
1.37455330107005
1.27293657224091
1.18000841794288
1.09469290701982
1.01608060880093
0.943399999595768
0.875995660679309
0.813311950291904
0.754881293024489
0.700316608132458
0.64930773805375
0.601622073685543
0.557109925442571
0.515715552770938
0.477495061135575
0.442642346398526
0.411523260220613
0.384714846206525
0.363038893391617
0.34756666312693
0.339562112350816
0.340347436371789
0.351139024937178
0.37297804419497
0.406873914849897
0.454183365747976
0.501519904577933
0.538002245994844
0.576921089326007
0.618246878177667
0.662016448398406
0.708321006228457
0.757298076950112
0.809126499198186
0.864023783661738
0.922245363313244
0.984085427752428
1.04987916375312
1.12000632788635
1.19489616485755
1.2750337653318
1.36096803690744
1.45332154851824
1.55280260922208
1.66022006556427
1.7765014581558
1.90271538195339
2.04009916549333
2.19009334960662
2.35438494568496
2.53496214558938
2.73418412636093
2.95487097370211
3.20042073920992
3.4749635601871
3.78356710384549
4.13251415295176
4.52968325403677
4.9850792429252
5.51158602299093
6.12605608783459
6.85092254590278
7.71664357505008
8.76551267128144
10.0577846589933
11.681875216184
13.7720268303426
16.5403039531683
20.3375370107236
25.7762799274448
33.9972073272596
47.323025951873
71.5080144374059
128.91830126914
350.825049700614
2012.80032889589
)
;
    }
    outlet
    {
        type            zeroGradient;
    }
    frontAndBack
    {
        type            empty;
    }
}


// ************************************************************************* //
