/*--------------------------------*- C++ -*----------------------------------*\
| =========                 |                                                 |
| \\      /  F ield         | OpenFOAM: The Open Source CFD Toolbox           |
|  \\    /   O peration     | Version:  3.0.1                                 |
|   \\  /    A nd           | Web:      www.OpenFOAM.org                      |
|    \\/     M anipulation  |                                                 |
\*---------------------------------------------------------------------------*/
FoamFile
{
    version     2.0;
    format      ascii;
    class       volScalarField;
    location    "0";
    object      p;
}
// * * * * * * * * * * * * * * * * * * * * * * * * * * * * * * * * * * * * * //

dimensions      [0 2 -2 0 0 0 0];

internalField   nonuniform List<scalar> 
14000
(
0.0837294439746262
0.0834135098459275
0.0833296200441495
0.083286175833074
0.0833005098134973
0.0833918339590991
0.0835577644796624
0.083804981224971
0.0841405260938317
0.0845722241423217
0.0851097621054022
0.085764518882766
0.0865500032448091
0.0874820253448126
0.0885794740034315
0.0898643168690527
0.091363488755314
0.0931081967682237
0.0951391440501402
0.0975033366995326
0.100268404770883
0.103547237865002
0.107486541738735
0.111581614653988
0.115661401516069
0.119555993707114
0.123068267230515
0.12616670087932
0.128512629926203
0.13036201966647
0.131213219660861
0.131198751124373
0.130215507397695
0.12790953942957
0.124238070027321
0.118777041047835
0.111827230627344
0.101792383634437
0.0900484095464921
0.0738388451950898
0.0547505537826636
0.0282485434312997
-0.00263560868039003
-0.0419004829445704
-0.0884855793416372
-0.142190791377077
-0.202424110525212
-0.269026674802237
-0.338537586618773
-0.409608388496672
-0.476867210902257
-0.535853117971868
-0.586315865248538
-0.620870534311534
-0.644011316845605
-0.655184387244514
-0.660191045794935
-0.658385450728329
-0.650640391984767
-0.638622993747786
-0.623045676402114
-0.605026091396201
-0.585509998562987
-0.566474782389991
-0.548199307583682
-0.532728297314146
-0.505320815871974
-0.455475517131723
-0.406214398020522
-0.374060744170639
-0.342598821533646
-0.315383044585584
-0.287854397080387
-0.264087761603069
-0.240475289470836
-0.219960180518049
-0.200247087131395
-0.183014775535386
-0.166637999581883
-0.15186057744775
-0.138512933636791
-0.125786266049471
-0.114459322520945
-0.103569135111242
-0.0937976412965337
-0.0842567531536306
-0.0756906422133019
-0.0673502006574994
-0.0595744429711439
-0.0522870607456282
-0.0451990453498121
-0.0387223539841443
-0.0323963875386348
-0.0265541893359708
-0.0209805850659817
-0.0158146976693355
-0.0109974558668008
-0.0066261119713969
-0.00261098115229053
0.000843289115538753
0.00384043353314253
0.00618219382096234
0.00777586113593395
0.00820054394142002
0.00860005485069175
0.00872809749863953
0.00877580513623349
0.00868166179903887
0.00851290077072214
0.00826895579187482
0.00797928479024478
0.00765374586695125
0.00730734934062203
0.00694880973263545
0.00658645054889135
0.00622603638124382
0.00587207733328607
0.00552786457248168
0.00519542937560864
0.00487642092777659
0.00457112862665145
0.00428041729820576
0.00400304651015195
0.00374016893982411
0.00348836090774935
0.00325100062820622
0.00302001796384378
0.00280563026494318
0.00258794010758391
0.00239607601853041
0.00217847429089517
0.00201619998499578
0.00177084414473809
0.00166747418741571
0.00132560589877554
0.00137448553687127
0.000750314862343589
0.00122509296892424
-0.000191867889315627
0.00142273980058919
0.0837295020300088
0.083413437789345
0.083330184868093
0.0832868620889698
0.0833013161833837
0.0833927705527346
0.0835587953045026
0.0838060967194384
0.0841417202593552
0.0845734936150203
0.0851111072145585
0.0857659421781424
0.0865515098100408
0.087483622550707
0.0885811732643459
0.0898661334165407
0.0913654473171413
0.0931103289701045
0.0951415008904795
0.0975060045087133
0.100271291514513
0.103548036093239
0.107482196330496
0.111571800533132
0.115646081590493
0.119534987362748
0.123040523461193
0.126131005078802
0.128467792433757
0.130304563339403
0.131140805667546
0.131108075796028
0.130100117590396
0.127763005320265
0.124053688714324
0.118547038988753
0.111534540854302
0.101431137742216
0.0895943186830021
0.07327569630262
0.0540374937810957
0.0273862704739137
-0.00365737239728064
-0.043081693788482
-0.0897745162743535
-0.14354114997356
-0.203785578231484
-0.270315069044545
-0.339679799519097
-0.410526710774402
-0.477510288998146
-0.53624310351766
-0.586466085797769
-0.620858676676086
-0.643914957696139
-0.655059824816767
-0.660062885715461
-0.658264020953325
-0.650538884191676
-0.63854857631262
-0.623001900275364
-0.605014215287583
-0.585527150922899
-0.566515781769335
-0.548253554973176
-0.532837110931331
-0.505599665028938
-0.455945754164586
-0.406704972716859
-0.374422610908007
-0.342882517537618
-0.31562809545077
-0.288078856555439
-0.264294716485648
-0.240670122574795
-0.220141046629238
-0.20041576244985
-0.183168239187404
-0.166784092587345
-0.151995498212199
-0.138638954712513
-0.1259064552178
-0.114574877163771
-0.103680246681341
-0.093906277142391
-0.0843657926842517
-0.0757970960981012
-0.0674583426797215
-0.0596834344798753
-0.0523973878144813
-0.0453131971732053
-0.0388381604357449
-0.032515393493495
-0.0266769130907167
-0.0211069774767263
-0.0159458068982306
-0.0111324989899738
-0.00676574785224849
-0.0027564688139299
0.000691867452930079
0.00368163302161896
0.00601232311778245
0.00760736321998046
0.00805640958152783
0.00847994154665464
0.00862409363619371
0.00868519673214345
0.00860198710461021
0.00844283070646064
0.00820715989894849
0.00792473995568342
0.0076055014857348
0.00726460873051189
0.00691086739904981
0.00655270403907019
0.00619596480437606
0.00584523319597752
0.00550386040492034
0.00517392844379735
0.00485713095952162
0.00455379245018539
0.00426481256426332
0.00398897362196247
0.00372746006893683
0.00347685735883504
0.00324058203671771
0.00301054686757627
0.00279703605351852
0.002580077620375
0.00238895312048163
0.00217187269019366
0.0020102978483214
0.00176518006416224
0.00166266706979228
0.00132048164013621
0.0013708719962206
0.000745057426911417
0.00122305549881562
-0.000198594478117599
0.00142431278228357
0.083729183154059
0.0834128364100806
0.0833306864809388
0.0832875532168685
0.0833023213356628
0.0833940837421397
0.0835603629897898
0.0838079122560098
0.0841437786767636
0.0845757982085026
0.085113671051795
0.0857687862879316
0.0865546645501299
0.0874871275931452
0.0885850809054304
0.0898705082040386
0.0913703751496015
0.0931159101603745
0.0951478598708777
0.0975133089489622
0.100279562887723
0.103553988789097
0.107480455656878
0.111560540320893
0.115623958002227
0.119500715086502
0.122992219147566
0.126067329238176
0.128387774682765
0.130204703655108
0.131020057973868
0.130963699679739
0.12992699275839
0.127556966291678
0.123811580506816
0.118263007514511
0.111198351073203
0.101041863385952
0.08913542482507
0.0727403631575321
0.0534029664547724
0.0266712013812805
-0.00445617174952112
-0.043942776947561
-0.0906490079421195
-0.144390665739839
-0.204566946552749
-0.270963194205429
-0.340149146065205
-0.410769938386707
-0.477522247936209
-0.536071633269144
-0.58614815556111
-0.62048977857913
-0.643558628203082
-0.654753315634865
-0.659805716558442
-0.658053748542128
-0.650376950212164
-0.638432433149942
-0.622927757600506
-0.604977454489403
-0.58552062786008
-0.566533104058587
-0.548289053497089
-0.532922891926706
-0.505753905433426
-0.456227818305625
-0.406968594480653
-0.374651797053873
-0.343044781343291
-0.315750209924288
-0.288178376631538
-0.264379233739455
-0.240745415372425
-0.22020974166035
-0.200479210280931
-0.183225123502082
-0.16684037798052
-0.152049354392226
-0.138690944527717
-0.12595855383082
-0.114628438415269
-0.1037341547012
-0.093962259713859
-0.0844252938789208
-0.0758581897502397
-0.0675234209523838
-0.0597525059059287
-0.0524706632555785
-0.0453928226544313
-0.0389231363652393
-0.032606767633558
-0.0267760937168139
-0.0212141894276323
-0.0160627084961211
-0.0112589036222334
-0.00690276740572294
-0.00290572573078017
0.00052970998914884
0.00350511675273468
0.00581767478813762
0.00740774866919398
0.00787724640664898
0.00832424460424148
0.00848510822161131
0.00856089814634283
0.00849006765345559
0.0083421638973416
0.00811648348607203
0.00784308192429099
0.00753189627050355
0.00719821925087651
0.00685091658464856
0.00649850283198342
0.00614689351219244
0.0058007416862788
0.00546345957913178
0.00513718324873503
0.00482365706356484
0.00452324552002332
0.00423689160167448
0.00396340321382491
0.0037040072596973
0.00345529499390299
0.00322074158778051
0.00299222450219175
0.00278013663326191
0.00256437363852943
0.00237447514962779
0.00215826210735599
0.00199787031068841
0.00175316048438472
0.00165211633089386
0.00130941956942373
0.00136240079953032
0.000733844395696415
0.00121755407567376
-0.000212968575788935
0.00142714850263554
0.083726546371503
0.0834115836531078
0.0833311422081074
0.0832884193229801
0.0833040432126637
0.0833965331780357
0.0835634566023138
0.083811636204434
0.0841481151215311
0.0845807512460742
0.0851192634226933
0.0857750572757428
0.0865616713668297
0.087494945896077
0.0885938062942294
0.0898802577604032
0.0913812886493175
0.0931281436198404
0.0951615419705197
0.0975285400938904
0.100295793643319
0.103563202661868
0.107467565573388
0.111523485747706
0.115560669737127
0.119408957309849
0.12286913564811
0.12590886060881
0.128193841167897
0.129964681521557
0.130733996541084
0.130624013275972
0.129522298169102
0.127080351780389
0.123255604690153
0.117618685543246
0.110442166866867
0.1001849728118
0.08813612884218
0.0716083610179698
0.0520897120485483
0.0252566180366366
-0.00598805668141132
-0.0455075038616694
-0.0921440195454447
-0.145734527141668
-0.205669060049794
-0.271690779209416
-0.340430390044178
-0.410517172445581
-0.476764929682109
-0.534940901421394
-0.584735291110647
-0.619060029327198
-0.642245664020427
-0.65365524070405
-0.658890421146789
-0.657312357153979
-0.649804368395702
-0.638009750957573
-0.622637951376673
-0.604800866935026
-0.585435516870903
-0.566518060610427
-0.548333588587434
-0.532992540319226
-0.505812287686492
-0.456358220244276
-0.407199445837407
-0.374905201138382
-0.343257463624761
-0.315908282252831
-0.288317044553422
-0.264490884267769
-0.240853221926234
-0.220305027635458
-0.200573373841105
-0.183308497240514
-0.166926429828806
-0.152131877560582
-0.138770570641379
-0.126040016746294
-0.114709364750311
-0.103817128799671
-0.094045413571363
-0.0845142785372337
-0.0759471494561589
-0.0676182647746935
-0.0598519653886909
-0.0525752918612681
-0.0455069478718896
-0.0390440108962947
-0.0327382615799699
-0.0269190255297981
-0.0213707653729433
-0.0162352315291464
-0.0114487221928276
-0.00711181546554948
-0.0031383089970627
0.000272276013781413
0.00321863113686426
0.00549687581946924
0.00707030468429825
0.00756669521408899
0.00804338251227384
0.00822768886667282
0.00832441921168089
0.00827220670479819
0.00814160869951716
0.00793187729888998
0.00767326567551524
0.00737569498718297
0.00705454202047046
0.0067187099739711
0.00637678620454241
0.00603474908863877
0.00569732393614624
0.00536799101361858
0.00504895428692013
0.00474202098911494
0.00444761502390993
0.00416673321093782
0.00389823357654612
0.00364338655837822
0.00339882584637328
0.00316806310288692
0.00294301130112032
0.00273408993941393
0.00252122550915889
0.00233397727833437
0.00212019263688927
0.00196202248191018
0.0017193450084269
0.00162016451052231
0.00127915811016754
0.0013336914313466
0.000706558543561234
0.00119148974154844
-0.000240330683512266
0.00142472925495844
0.0837251366130219
0.0834092347407724
0.0833307127837784
0.0832880947165246
0.0833042513371476
0.083397245074019
0.0835645832684607
0.0838131671273969
0.0841500255237654
0.084583024648668
0.0851218924731107
0.085778039518424
0.0865650104110747
0.0874986479051085
0.0885978809233369
0.0898847082436105
0.0913861135640802
0.0931332993247497
0.0951669108665442
0.097533798357136
0.100299833037191
0.103559292723901
0.107446268010655
0.111482990846455
0.115500376750352
0.119328093238
0.122765675401411
0.125781031842672
0.128039701465717
0.129778570938803
0.130513785822139
0.130364194402419
0.129214839535404
0.126718777177345
0.12283463278044
0.11712855981188
0.109870576655206
0.0995306376161985
0.0873796086938159
0.0707455174968517
0.0511037593660943
0.0241898887188276
-0.00712579225520917
-0.0466589982444205
-0.0932244846985385
-0.14667770243711
-0.20639789559002
-0.272106608903542
-0.340470546474826
-0.410120253106468
-0.475953308236202
-0.533808059860157
-0.583370257244558
-0.617663947644546
-0.640945486758174
-0.652533211983539
-0.657935679873592
-0.656521652306075
-0.649175855180856
-0.637529249701253
-0.622289970136242
-0.604567659511115
-0.58529465858778
-0.566451984767608
-0.548311066562825
-0.532951077099168
-0.505743587923609
-0.456272524639578
-0.407228855977959
-0.375004679724179
-0.343360321789812
-0.316002453091185
-0.288399748982924
-0.264567397684428
-0.240923440722309
-0.220372200579091
-0.200636131107884
-0.183367780152962
-0.166984980257769
-0.152187061222918
-0.138825599456469
-0.126092982567051
-0.114763370895935
-0.103869777853455
-0.0940996745138606
-0.0845690312391054
-0.0760032746672602
-0.0676763639234044
-0.0599121602628257
-0.0526390565254853
-0.0455744108291418
-0.0391165184801281
-0.0328158098332945
-0.027003750507591
-0.0214631977307962
-0.0163374125317588
-0.0115613059265943
-0.00723678211512905
-0.00327757941489443
0.000116664937779276
0.00304486562108983
0.00530176528638879
0.00686555947887136
0.0073732540051253
0.0078666362310898
0.00806296687859091
0.00817151825764555
0.00812957894115596
0.00800889505003012
0.00780832102389398
0.00755837515359484
0.00726886209190594
0.0069552305956361
0.00662636719452481
0.00629089501657034
0.00595481079659115
0.00562287095403177
0.00529858624022425
0.0049841905335039
0.00468152543037306
0.00439103932895356
0.00411376615073263
0.0038485763884225
0.00359678707257552
0.00335501828757127
0.00312686144021562
0.00290415233403221
0.00269748459502975
0.00248654218166293
0.00230132360017859
0.00208898642416867
0.00193285800553844
0.00169088984757739
0.00159432878357129
0.00125245397499699
0.00131172130181547
0.000679659044793426
0.00117602891421978
-0.000274105203595083
0.00142787029797951
0.0837195832996372
0.0834057304190233
0.0833289508118513
0.0832864995365906
0.0833035021044805
0.0833971417755848
0.0835650407136179
0.0838141626169996
0.0841515075103445
0.0845849529838866
0.0851242298693334
0.085780747153695
0.0865680455646824
0.0875019586315091
0.0886013964723547
0.0898883268306337
0.0913896704701595
0.0931365228774745
0.095169256276745
0.0975342076261744
0.100295600671963
0.103538291680681
0.107387556832472
0.111386155003758
0.115365577370696
0.119155313471134
0.122554208238132
0.125526833113569
0.127744212795751
0.129427662298321
0.130108393572142
0.129893231660407
0.128663549400121
0.126078581694331
0.122093602690758
0.116274315910523
0.108871341945093
0.098399658950944
0.0860601826219335
0.0692540851877078
0.0493820149121438
0.0223452436370629
-0.00911330068259591
-0.0486666520634962
-0.0951167317523181
-0.148337164264459
-0.207686442532778
-0.272832899783208
-0.340520438561097
-0.409357925687999
-0.474403109999607
-0.53162606686233
-0.580677215354919
-0.614852821693983
-0.638238599977871
-0.650124156162191
-0.655804343933011
-0.654688979330694
-0.647660278189949
-0.636312978354361
-0.621354637245562
-0.603886125046994
-0.584832755535568
-0.566153929173785
-0.548058220810957
-0.532523753375449
-0.505221308085769
-0.456000483386609
-0.407244859669841
-0.37506356961124
-0.343482659076013
-0.316121109678698
-0.288533903026807
-0.264684559676724
-0.241047830047226
-0.220482527711399
-0.200747386761637
-0.18346641336027
-0.167084897113376
-0.152279590635545
-0.138913909014246
-0.12618081080729
-0.114846885017795
-0.103954269809407
-0.0941812868219346
-0.0846542571046501
-0.0760863121728702
-0.0677636105018411
-0.0600013387279713
-0.0527318496321246
-0.0456741348962415
-0.0392209724073919
-0.0329294945044227
-0.0271264888790694
-0.0215983358798435
-0.0164866033405181
-0.0117269847976688
-0.00742090278822373
-0.00348490324091636
-0.000115220841440045
0.00278373976506173
0.00500910529345761
0.00655677467676531
0.00708648828240295
0.00760038270366543
0.00781418850650512
0.00793853146499693
0.00791132245121012
0.00780458058986661
0.00761722188596779
0.00737977472447277
0.00710202031079585
0.00679941147811726
0.00648083199751747
0.00615492611670051
0.00582771231050191
0.005503980856141
0.00518727737623077
0.0048798777889865
0.00458366195932674
0.00429912274517284
0.00402732745404556
0.003767192735094
0.00352005570138609
0.00328259181152902
0.00305838583842032
0.0028393590570757
0.00263603620127276
0.00242827475524061
0.0022458510408033
0.0020363343975037
0.00188243288088174
0.00164315066942398
0.00154806166530331
0.0012092288455378
0.0012686251078546
0.000641109351285178
0.00113544747797661
-0.000309692641169191
0.00142156929334156
0.0837168440627867
0.0834013425721532
0.083326807563026
0.0832842454104484
0.0833016322218308
0.0833956025565763
0.0835637119480271
0.0838130182021437
0.0841504941487301
0.0845840160023207
0.0851233117560796
0.0857797796812305
0.0865669479403304
0.0875006281429131
0.088599702457851
0.0898860871831214
0.0913866343126167
0.093132295667428
0.0951632023146697
0.0975251338161497
0.100281019631099
0.103509132445269
0.10733204930871
0.111302524155943
0.115254360284037
0.119017391946809
0.122389089868975
0.125334001063542
0.127522394101059
0.129171081162956
0.129815020802604
0.129556648725702
0.128274977058422
0.125630825968464
0.121580375315851
0.115683766206375
0.108190390512656
0.0976240099352082
0.085169088530114
0.0682402121821092
0.0482313329458935
0.021099507648053
-0.0104409669557361
-0.0500145100229024
-0.0963913185016051
-0.149463066505741
-0.208568900684521
-0.273351093629283
-0.340584835643377
-0.408878936893521
-0.473380612151717
-0.530139395375919
-0.578813353609342
-0.612841749081378
-0.636250461887622
-0.648286848184395
-0.654131934110149
-0.653204375992088
-0.646388019250324
-0.635252571238965
-0.620499988047697
-0.603225641159049
-0.584344270466485
-0.565784247438862
-0.547696913755761
-0.532068804681341
-0.504768363276908
-0.455767940284632
-0.407174528730772
-0.375053359180517
-0.343520083151252
-0.316184640663655
-0.288604618236499
-0.264760645583229
-0.24112152260662
-0.220555341735492
-0.200814825042105
-0.183531150550224
-0.167147130738558
-0.152336307094304
-0.13897089720422
-0.126233288228555
-0.114899881878998
-0.10400434284463
-0.0942328406505216
-0.0847040602927715
-0.0761376378231172
-0.0678156412607814
-0.0600542209279472
-0.0527881507216757
-0.0457321405378724
-0.0392838628346421
-0.0329961811177449
-0.0271995291107901
-0.0216782234337689
-0.0165753511484074
-0.0118254823916878
-0.00753143088392178
-0.00360903457738239
-0.000255433407356391
0.00262605854807798
0.0048320778194418
0.00637191896971972
0.00690963623148214
0.00743666238843184
0.00765932235663656
0.00779304555687957
0.0077740356963522
0.00767550685252951
0.00749585334494351
0.00726586095577033
0.0069951452860866
0.00669921232564908
0.00638689996154561
0.00606686833744124
0.00574513371918006
0.00542650048182535
0.00511453001168103
0.00481151514666934
0.00451936069190174
0.00423857412974766
0.00397025519539846
0.00371332391138835
0.00346916509917496
0.00323442800848569
0.00301278831787863
0.00279606364349792
0.00259498996244277
0.0023891161424214
0.00220876363348199
0.00200063286911982
0.00184890729317201
0.00161016209136019
0.00151807006255196
0.00117784653086651
0.00124309050016012
0.000608986515552007
0.0011185823228359
-0.00035022952358339
0.00142721333122827
0.0837079895647841
0.0833953472196734
0.0833221290406366
0.0832796280608138
0.0832976297411002
0.0833919044371912
0.0835601852963525
0.0838095819545772
0.0841470360927813
0.0845804263824038
0.0851194664522448
0.085775531023313
0.0865621143216105
0.087494980849418
0.0885929399905345
0.0898778080006919
0.091376261551535
0.0931189934937685
0.0951455789433172
0.0975007622148154
0.100245086993416
0.103446751618863
0.107217764025951
0.111135872063351
0.115036230613415
0.118749620209593
0.122073850582405
0.124968676579529
0.127111783222862
0.128699959646055
0.129286652174249
0.128958856461715
0.127592300772064
0.124855271540401
0.12069833234986
0.114683530142902
0.107036311554112
0.0963337384929004
0.0836778426695206
0.066573453615017
0.0463258226990166
0.0190784466775997
-0.0126039456744234
-0.0521808876526434
-0.0984245308765463
-0.151241714444729
-0.209947599158643
-0.274126884663829
-0.34063356920865
-0.40804485225019
-0.471670474732925
-0.527689888180933
-0.57571457766649
-0.609490256149028
-0.632875797551399
-0.645117368332863
-0.651166930874296
-0.650495995644701
-0.64399362238262
-0.63318109985459
-0.618756916911378
-0.60180566965039
-0.583224438490672
-0.564856200266181
-0.546807657215513
-0.53095837608967
-0.503687014777239
-0.455321008650373
-0.407125644602056
-0.374967680610676
-0.343545244195482
-0.316244164179269
-0.28871868692107
-0.264869601892335
-0.241251922844666
-0.220671113015722
-0.200934673239269
-0.183636255039585
-0.167252757100611
-0.152431432106264
-0.13906043453064
-0.126320950745698
-0.114980144928662
-0.104085326375705
-0.0943085774539323
-0.0847823292669416
-0.07621218785274
-0.0678936188007238
-0.060132369728704
-0.052869049105445
-0.0458184038201454
-0.0393734291025682
-0.0330942486968483
-0.0273048273520059
-0.0217951023713098
-0.0167046718725526
-0.0119704829894976
-0.00769380148269589
-0.00379379165340245
-0.000463508615411696
0.00238981875350757
0.00456819639620077
0.0060942678340748
0.00665267273542654
0.00719467182912893
0.00743127830411646
0.00757697659668246
0.00756980104935577
0.00748253628447443
0.00731389132104979
0.00709446053776047
0.00683387302247963
0.00654756632806191
0.00624436026355457
0.00593289846684198
0.0056191955911189
0.00530806520997624
0.00500308233612019
0.00470656540299933
0.0044204396437884
0.00414524849565409
0.00388210769377336
0.00362998530277113
0.00339026181048378
0.00315966367032131
0.00294180984499445
0.00272867205037835
0.00253079537462489
0.00232809329528703
0.00215034687680069
0.00194518560999542
0.00179532309439417
0.00155978846949103
0.00146828152650569
0.00113261320213137
0.00119567779519954
0.000570258488068986
0.00107216814527437
-0.000379815953566298
0.00141813606741638
0.08370360915854
0.0833886656403182
0.0833178525084095
0.0832751261647105
0.0832933403768555
0.0833877318126409
0.0835559442265127
0.0838051932399597
0.0841423915299625
0.084575410503857
0.0851139514856685
0.085769364152176
0.0865551104068059
0.0874869062490831
0.0885834965146902
0.0898665954484705
0.0913627362128096
0.0931023544986629
0.0951246074295341
0.0974733252996824
0.100207399981436
0.103388071413107
0.107124528994587
0.111005547538226
0.114869347808611
0.11854788952277
0.121838043239362
0.124699692708307
0.126809732211957
0.128359813632923
0.128907183483927
0.128533600806895
0.127112611766744
0.124313922971731
0.12008886285958
0.113993612460474
0.106253390732071
0.0954526388225139
0.0826790598134399
0.0654503528010174
0.0450696769201999
0.0177330406321881
-0.0140190899173489
-0.053598606839376
-0.0997467805752402
-0.152389592024106
-0.210821604413117
-0.274605041554743
-0.340625335813197
-0.407462988416215
-0.470517274647981
-0.526042813754611
-0.573657936216327
-0.607243540614111
-0.630603827217982
-0.642944417824647
-0.649110358980385
-0.648583894228284
-0.642264675063235
-0.631648188501094
-0.6174267302387
-0.600680919804931
-0.582288454379772
-0.5640496457121
-0.546028131073531
-0.530078077248462
-0.502908794346145
-0.454979915248801
-0.407029678376031
-0.374882572488939
-0.343517083132223
-0.316266282210862
-0.28876920777057
-0.264937947428325
-0.241324370807281
-0.220745547727372
-0.201003873096845
-0.183703447540174
-0.167316133340197
-0.152487291895639
-0.139116977356172
-0.126370765019127
-0.115030093745308
-0.104131047980923
-0.0943558121302706
-0.0848259500541537
-0.0762576786517138
-0.067938886423733
-0.0601775391841683
-0.0529177991076613
-0.0458672140336226
-0.0394272192257247
-0.0331508543035165
-0.0273671709234433
-0.021863625483774
-0.0167812684750588
-0.0120561915358535
-0.00779106880279638
-0.00390378487175694
-0.00058895513469469
0.002248046711486
0.00440937937693937
0.00592979828497374
0.0064941203514433
0.00704707842671338
0.00729030751558731
0.00744335561347931
0.00744255189402632
0.00736190654591336
0.0071995711700613
0.00698638894753704
0.00673179798741678
0.00645127319912723
0.00615356897950978
0.00584732886748759
0.00553854979826732
0.00523204577046153
0.00493139557203508
0.00463892346381429
0.00435657107051472
0.00408488756588298
0.00382501601286181
0.00357591981615237
0.00333902636602671
0.00311102590338424
0.00289563494796139
0.00268470271730152
0.00248900976970385
0.00228811591684719
0.00211241828954962
0.00190855666469927
0.00176092271249093
0.00152577528084182
0.00143750296023989
0.00110006618964997
0.00116977834169641
0.000536618346597963
0.00105664733832802
-0.00042237109650524
0.00142577840191698
0.0836909003479498
0.0833797246444449
0.0833095566078154
0.0832669358547954
0.0832855249130388
0.0833798883151995
0.0835478649608314
0.0837966925561153
0.0841332582123755
0.0845654275235713
0.0851028722845809
0.0857568985804764
0.0865409036953226
0.0874705171704943
0.0885643515988507
0.0898439455756461
0.091335532319683
0.0930691194619983
0.0950830143988966
0.0974195066854957
0.100134472188925
0.103279276560754
0.106951126560441
0.110766095638502
0.114564067899843
0.11817900693348
0.121409551650216
0.124209953382397
0.126266963399385
0.127748839079951
0.128234079538941
0.12778621493585
0.126275790796318
0.123380762791057
0.119044585572875
0.112828277913189
0.104928445237561
0.0939908472176811
0.0810098357182936
0.063610417437562
0.0429931125186549
0.0155598556118536
-0.0163172439718392
-0.0558641077280404
-0.101840115110136
-0.154180440067283
-0.212157311621946
-0.275276451511578
-0.34051090383733
-0.406409794260875
-0.468543942544968
-0.523298981967995
-0.570240253452686
-0.60356155403996
-0.62687797736875
-0.639399407940722
-0.645732323675487
-0.645417727784074
-0.6393680256779
-0.629034005405436
-0.615109002987576
-0.598664885503353
-0.580553605100694
-0.562503597003814
-0.544518919357843
-0.528284013427447
-0.50125365099563
-0.454335041320677
-0.40702121916152
-0.374744268225837
-0.343464358445581
-0.316256961319901
-0.28885477120013
-0.265030727303033
-0.241456525901022
-0.220863224287376
-0.201130289549432
-0.183812640160612
-0.167425421741912
-0.15258308947856
-0.139205400986846
-0.126456125654729
-0.115104878675869
-0.104206572286244
-0.0944237380515071
-0.0848958204948572
-0.0763224940350822
-0.0680067610801561
-0.0602443092485143
-0.0529868367857444
-0.0459406837737865
-0.0395029902316896
-0.0332349170826171
-0.0274571128686901
-0.0219647984316259
-0.0168936739770675
-0.0121837770567555
-0.00793508993409095
-0.00406945290863582
-0.000776539246855182
0.00203370409559292
0.00417150616593983
0.00568072129401959
0.00626567730683941
0.00683010297109172
0.00708538477212777
0.00724749141110918
0.00725625621120264
0.00718457264047921
0.00703130209649446
0.0068268989547799
0.00658089376826663
0.00630862837774144
0.00601884193654494
0.00572013207966738
0.00541848057510183
0.00511869262976824
0.00482434524791638
0.00453777633712764
0.00426093298617083
0.00399439473601085
0.00373930389505282
0.00349467643932847
0.00326190914479913
0.00303779572760267
0.00282593964463724
0.00261842433314183
0.00242569913572498
0.00222791022709441
0.00205454544182602
0.00185377588204508
0.00170753165528063
0.0014761648357604
0.00138739242258054
0.0010562610628721
0.00112100148889171
0.000501510127373006
0.00100657919956953
-0.000440592035371866
0.00141151151195123
0.0836844452820762
0.0833703447825997
0.0833026280013252
0.0832597220818372
0.0832783374562
0.0833726049790919
0.0835402283338094
0.0837885501969568
0.0841244265907265
0.0845557073220363
0.085092041268206
0.0857446946214693
0.0865270109305773
0.0874545427629917
0.0885457973905501
0.0898221558407644
0.0913096251235276
0.0930378314580836
0.0950444828370749
0.0973706154193045
0.100070176397978
0.103187609641173
0.106817229282853
0.110586430071331
0.114338540387269
0.117909368391357
0.121097125185704
0.123856464644748
0.12587377976028
0.127311895883368
0.127753320264936
0.127255659564223
0.125687446438711
0.122727750195316
0.118320477418986
0.112020851643716
0.104025677093389
0.0929874474042436
0.0798875560699669
0.0623647579389481
0.0416201129641044
0.01410648326154
-0.0178252062035626
-0.0573527930950285
-0.103206751436664
-0.155340604163517
-0.213005638403266
-0.275688315401814
-0.340394924694436
-0.405682166221982
-0.467213202900523
-0.521448873507907
-0.567966042764158
-0.601088882889806
-0.624377100698153
-0.636994604570189
-0.643440155254369
-0.643260219905622
-0.637377930484476
-0.627220138367929
-0.613476302470664
-0.597216889330694
-0.579270951041721
-0.5613347061268
-0.543345501390623
-0.526955191228994
-0.500077888095083
-0.453829353315711
-0.406942345252856
-0.374670120988391
-0.343403743114385
-0.316237324360192
-0.288883379075092
-0.265088745154741
-0.241527864504585
-0.220939241685687
-0.20120215492924
-0.183882547510976
-0.167490282683892
-0.15263811168487
-0.139261148879789
-0.126502814179014
-0.115151027614406
-0.104247266474868
-0.0944658262188825
-0.0849326103488341
-0.0763615461382804
-0.068044876057374
-0.0602815586627019
-0.0530281071264859
-0.0459806770941756
-0.039548357708592
-0.033282469163127
-0.0275100883007739
-0.0220236653584223
-0.0169601334042197
-0.0122590238248953
-0.00802162875081072
-0.00416804056157803
-0.000890014813008118
0.00190503272926049
0.00402803678463661
0.00553368523342731
0.0061231835314491
0.00669751772985217
0.0069582263279752
0.0071262786856318
0.00714007784133785
0.00707374486304954
0.00692564117296707
0.00672645912266947
0.00648554066599151
0.00621825331136172
0.00593326274908922
0.00563915559689527
0.00534188655030492
0.00504625184405558