/*--------------------------------*- C++ -*----------------------------------*\
| =========                 |                                                 |
| \\      /  F ield         | OpenFOAM: The Open Source CFD Toolbox           |
|  \\    /   O peration     | Version:  3.0.1                                 |
|   \\  /    A nd           | Web:      www.OpenFOAM.org                      |
|    \\/     M anipulation  |                                                 |
\*---------------------------------------------------------------------------*/
FoamFile
{
    version     2.0;
    format      ascii;
    class       volVectorField;
    location    "0";
    object      U;
}
// * * * * * * * * * * * * * * * * * * * * * * * * * * * * * * * * * * * * * //

dimensions      [0 1 -1 0 0 0 0];

internalField   nonuniform List<vector> 
14000
(
(0.097957892923579 1.43832085565984e-06 0)
(0.0976285546231333 7.60806229144861e-06 5.90441676042324e-25)
(0.0973068264731099 6.34698400216422e-06 2.98069318459372e-23)
(0.0970124271978035 6.55913970491883e-06 -2.98075131442222e-23)
(0.0966887492017001 7.14865586968918e-06 5.93319053268805e-25)
(0.0963310557075882 7.38500916737246e-06 5.97448094221567e-23)
(0.0959483129556727 7.71477848249834e-06 -5.7373387590733e-23)
(0.0955341110055074 8.12224835708226e-06 1.94713409575066e-22)
(0.095082604582797 8.62060673178503e-06 -1.17539247204921e-22)
(0.0945864416740074 9.24186574389025e-06 4.56249869125891e-23)
(0.0940365022650526 9.99681945713217e-06 8.53771780642535e-25)
(0.0934223221327356 1.09007909408477e-05 -1.24963489403749e-22)
(0.092731974760381 1.19683534823113e-05 -2.42769890748669e-24)
(0.0919514527853024 1.32257729896563e-05 0)
(0.0910646139340139 1.46990576116813e-05 0)
(0.0900514402819866 1.64499952110795e-05 1.63204492747659e-22)
(0.0888883294683856 1.85349258924532e-05 -1.68537866037553e-22)
(0.0875430122074254 2.11296055238329e-05 -6.10287345752666e-22)
(0.0859755987423917 2.44167665986949e-05 4.37199553799061e-22)
(0.0841221906362009 2.91872226621593e-05 3.62411284442578e-22)
(0.0818699763117937 3.59939089840475e-05 5.79836723090234e-22)
(0.0791379017925783 9.24372533689457e-05 7.22099154968904e-21)
(0.0768326568083519 0.000299998997757097 1.5137809811214e-21)
(0.0756639689664088 0.000686357322415781 8.0986343399493e-20)
(0.0755040576903343 0.00126156722400766 -1.79390387230036e-19)
(0.0762064184984212 0.00203922361630734 -2.84274709089151e-19)
(0.0774236873299914 0.00303602112064712 5.90475153351036e-19)
(0.0791854678563239 0.00427766114000404 4.72510010528815e-21)
(0.08107228729635 0.00573572269805806 -4.35470915951403e-19)
(0.0832618376860335 0.0074736209288093 2.38855135893495e-21)
(0.0858252146556415 0.00947348359870345 -5.83327690460991e-20)
(0.0884369804373656 0.0117229586314989 -4.01911380971021e-18)
(0.0914667867897591 0.0143008472806758 -1.59535543650455e-18)
(0.0949026261149821 0.0172187924957268 -2.31636051974652e-18)
(0.0988195415309638 0.0204794218257136 2.99601674315974e-18)
(0.102747362806914 0.0240196237612798 -4.51685827401984e-19)
(0.10771591778538 0.0281189037280443 1.42612708576434e-20)
(0.112739398859877 0.0324415724302589 2.00551330695813e-18)
(0.118763576160443 0.0373889342884191 -2.8339864185773e-18)
(0.125313963539502 0.0426906754119389 2.27153998667777e-18)
(0.133909582263331 0.0489958110728246 3.03068345837519e-20)
(0.143451982143522 0.0553811328585822 4.72320927031214e-19)
(0.153700324988678 0.0618790761612533 -3.63754796923802e-20)
(0.165335162719637 0.0681477843489866 4.79392178133207e-19)
(0.176823541605783 0.0732532979245521 2.96611529589279e-20)
(0.187861979354618 0.076813786653441 3.52378507777179e-18)
(0.198573586427086 0.0786718190044133 2.66324856755604e-18)
(0.207897958418011 0.0781693651651467 -9.61566079150961e-18)
(0.215084190699079 0.0751700098941015 3.18284464652251e-18)
(0.218970279313407 0.0693658827977998 5.10321802070623e-22)
(0.217641682708707 0.0609114975296167 4.45659378063276e-18)
(0.21186121387577 0.0509624438913701 5.52950659429833e-18)
(0.200246551665003 0.0399431707403191 -3.26804072535658e-18)
(0.183871527020865 0.0293697415952129 6.28990838143311e-18)
(0.165441623625748 0.020215182000456 6.50668070087058e-18)
(0.147247348707355 0.0129816832909523 3.93074545383336e-20)
(0.13029452871804 0.00736521516420317 -7.9675163426382e-22)
(0.113278059846574 0.00305971175580088 7.96532464705911e-22)
(0.0966591623195288 -4.78124108360122e-05 -5.06013391321133e-21)
(0.0805758040957947 -0.00211936704694363 -4.13494179178999e-19)
(0.0648786398956443 -0.00328627637623156 2.31870140584611e-18)
(0.049724413262704 -0.00366348453247632 9.75577429258058e-21)
(0.035969740224589 -0.00344078608934435 -1.44426782283898e-18)
(0.0238157551018034 -0.00278442031096242 1.56755010862117e-18)
(0.0135910935464863 -0.00183086462339825 5.87697495942102e-18)
(-0.0024918801740325 0.000432580222080299 7.20326161253187e-20)
(-0.0198162408302771 0.00304402974013142 8.36467153821114e-18)
(0.00683596490854155 -0.00222787991312295 2.16774679238861e-18)
(0.0521055563014535 -0.0114877704833872 2.97730600553491e-18)
(0.0719680744358786 -0.0161080639133247 -3.80944399407834e-18)
(0.0749175779620775 -0.0175188393922423 -4.55626454636363e-18)
(0.0729339185593902 -0.0178494030463475 -3.38241670660168e-18)
(0.0695684901832598 -0.0176463011653522 -2.47486965125474e-20)
(0.06586232991525 -0.0172323037259354 1.84818190603257e-22)
(0.0618976347218589 -0.0165640475837077 -3.82145700139286e-20)
(0.0583300820949134 -0.0158522052383423 -3.70631083376118e-18)
(0.0548942368810244 -0.0150482339224068 4.34168171322448e-18)
(0.0518197407401357 -0.0142820250386876 3.77641601640196e-20)
(0.048688511952353 -0.0133963772294166 -7.12373969425834e-19)
(0.0464188858627799 -0.0126572341259676 2.6814618086395e-20)
(0.0441035905204982 -0.0119056597185162 2.41312057470458e-18)
(0.0422189176827083 -0.01120012299895 -4.46250533578016e-19)
(0.0407606302984153 -0.0105719319970753 -4.06348891352821e-19)
(0.039661385144665 -0.010013967393732 9.05753125234586e-19)
(0.0388863140055722 -0.00951387773038778 8.22258973603392e-19)
(0.0385285672252294 -0.00906389827490761 1.51657333179124e-19)
(0.0386913270815409 -0.00872885183801278 1.18510769818984e-19)
(0.0389630041625342 -0.00837726309447524 -5.87102747272991e-19)
(0.0399290355798518 -0.00811768207041137 -7.5729455280126e-21)
(0.0410531378780946 -0.00785564703489151 -5.35576204455515e-21)
(0.0427098069061048 -0.00760349805887462 -4.08627605129559e-19)
(0.0447858890006115 -0.00737636030780942 -1.36280366918616e-20)
(0.0471432061172939 -0.0071106729006551 -6.65321547036576e-19)
(0.0499818493240499 -0.0068159808103753 3.91157101415453e-20)
(0.0531446238494401 -0.00646396148483136 1.93233300760207e-20)
(0.0567163907972946 -0.00603957642022516 7.17893112145722e-22)
(0.0606609345574944 -0.00554324035017838 5.71207080828529e-20)
(0.0648978422519315 -0.00495131828937625 8.35335548799814e-22)
(0.0694965105706307 -0.00424073989800442 1.4249489617511e-21)
(0.0744272611832548 -0.00342637161576712 1.57370627712178e-22)
(0.0796653750427538 -0.00249524549047438 1.07744108805938e-20)
(0.0853175098745239 -0.00144194022065977 -1.07577792575613e-20)
(0.0915442606504992 -0.000544385814004378 3.36240016009204e-21)
(0.0971260373845614 -0.00015787242815248 2.75849973212107e-22)
(0.101474491881136 -5.71756621485095e-05 1.68864650914633e-22)
(0.105135279027923 -2.37229586374657e-05 -7.98928483426937e-24)
(0.108198837610527 -1.10210529637989e-05 -5.78987939294113e-23)
(0.110808025789067 -1.20830262804925e-06 -6.77374936953976e-23)
(0.113001156856876 5.60458306343318e-06 8.26366469642488e-23)
(0.114842007912209 1.12271389840836e-05 -1.53821942376011e-23)
(0.116368595617181 1.54344522193076e-05 -6.22620218522165e-23)
(0.117622877646247 1.87806491602802e-05 1.09744085559096e-22)
(0.118637629156241 2.13113968031272e-05 -4.50827950650035e-23)
(0.119444171465358 2.32365099377964e-05 2.69324152910895e-23)
(0.120069492438098 2.46274383126832e-05 -4.1117184138921e-23)
(0.120538376909199 2.55737723491842e-05 1.87793108723867e-23)
(0.120872782432903 2.61391105648514e-05 -3.05951096992219e-23)
(0.121092435736405 2.63840759953288e-05 2.42168546089826e-23)
(0.121214348524606 2.63762029777395e-05 6.25004528127236e-24)
(0.121253744514966 2.6153729681534e-05 -6.07410340775301e-24)
(0.121223135443178 2.57854301402284e-05 -2.18320649017791e-25)
(0.121134362821112 2.52738541376184e-05 -1.27598318032361e-23)
(0.120995911311638 2.47063109581286e-05 7.82722546679036e-24)
(0.120817904069969 2.40180293111508e-05 5.03750310225362e-24)
(0.120604422196579 2.33707482488834e-05 -1.47612480748108e-23)
(0.120366622055514 2.2542488160493e-05 1.48114948838931e-23)
(0.120102091074214 2.1923943579689e-05 4.09857722885262e-24)
(0.11982876152429 2.09078974012942e-05 -3.96655362170361e-24)
(0.119529254419573 2.05049747419715e-05 1.71656646223967e-24)
(0.119243169446841 1.90753903680795e-05 -1.735479707129e-24)
(0.118914479290433 1.93173558212873e-05 0)
(0.118645414256125 1.67923977443054e-05 -1.34544651390296e-24)
(0.118273532745336 1.88252770915576e-05 1.35791185010136e-24)
(0.118079427916812 1.32626571387344e-05 5.41266474072411e-25)
(0.117600358971499 2.02743061931326e-05 -5.45700625108478e-25)
(0.117626635228805 6.12675889047678e-06 3.96861941235885e-25)
(0.116841113921739 2.70553751426419e-05 -1.80913162861966e-26)
(0.117482877468777 -1.17191827832599e-05 -3.74196199855195e-25)
(0.115899324817603 5.44832919702975e-05 -6.80142476881351e-27)
(0.117796273939725 -8.35664921697018e-05 0)
(0.296790628975532 9.86064625529247e-06 2.74130811434542e-24)
(0.296789494977389 3.91834761329123e-05 -1.45024013536123e-17)
(0.296297330548172 4.61328627509817e-05 -1.44921943460309e-17)
(0.295700898227817 5.25119711965944e-05 8.82603390222584e-23)
(0.295011700322772 5.86601140015093e-05 -7.02182480984809e-23)
(0.294225225808993 6.39339470540245e-05 1.4503265282517e-17)
(0.293349258421087 6.96258533086949e-05 1.45111957663367e-17)
(0.292376791216704 7.61052644410373e-05 1.41319881356346e-22)
(0.291296319406296 8.37010363293635e-05 -2.15733086524784e-22)
(0.290092507398016 9.27267384144912e-05 -1.47901308505574e-22)
(0.288745927675604 0.000103439350092416 2.87053169232145e-22)
(0.287233278074118 0.000116116405950161 -1.47621017835147e-17)
(0.285527216182792 0.000131069365707756 -1.48330366588668e-17)
(0.283595169189936 0.000148701189720151 1.49595291061762e-17)
(0.281398834798163 0.000169512226331967 1.50658709125298e-17)
(0.278891002396907 0.000194234322106151 -1.97859108371609e-22)
(0.276015010423285 0.000223814074495774 -1.12784975241551e-22)
(0.272695905710178 0.000259881344925147 4.63791509275766e-22)
(0.268839588453867 0.000304767880333249 -3.60844860808164e-22)
(0.26430516577324 0.000364322079116191 3.82150419164695e-22)
(0.258869889054298 0.000442425979514547 -7.1197180133994e-23)
(0.252304285824016 0.000648509026687512 -4.55086059392303e-21)
(0.245868155303222 0.00125150911362584 1.89481903138888e-20)
(0.240911804969769 0.00235917672314833 -3.84731720582402e-20)
(0.237692604066068 0.00401152407394985 -8.49791543744017e-20)
(0.236182851325929 0.00623154237656945 2.08048349009218e-20)
(0.236020057399343 0.00904343880843389 -3.20532549160028e-19)
(0.237350458068522 0.0124985451876016 -4.78073449093439e-20)
(0.23968112804174 0.0165436691876767 3.33111047604254e-19)
(0.243201538910739 0.0213241755329516 2.05513392545242e-20)
(0.248062547364322 0.0268225812012139 6.5969615883512e-19)
(0.253795513860269 0.0330514093859193 8.61065902655598e-19)
(0.260754115371011 0.0401716510259422 6.29260905017151e-19)
(0.268948825071545 0.0482379400864616 -2.04405068939385e-20)
(0.27851964527474 0.0572700677250138 -7.56449950299021e-19)
(0.288653459346865 0.0671697999877134 1.25009283949353e-20)
(0.300739924098242 0.0784197627897499 4.29713133207454e-19)
(0.313523707401586 0.0904355256528775 1.44477302163969e-18)
(0.32826532217682 0.10391373393824 4.43926799898108e-18)
(0.34434416546074 0.118327167516662 -1.3037413852006e-18)
(0.364279671331899 0.134853704583339 2.05587845437834e-19)
(0.386994376503093 0.151714515451296 -3.2665276805127e-19)
(0.41219879388266 0.168918238668951 3.08248385988566e-20)
(0.440785732520402 0.185459843664641 4.8510851465733e-19)
(0.470885366017091 0.199498685574082 1.67754323874439e-22)
(0.501349038082282 0.209883328841624 -4.59613086870922e-20)
(0.531997780983347 0.215956737000389 -6.01928485597017e-18)
(0.56090403606513 0.216156233007913 2.39188277805383e-18)
(0.586126387300419 0.209919332019976 -9.59619195663203e-18)
(0.604784277299837 0.196297181844511 -2.10719642031752e-19)
(0.612385834192037 0.175486808953379 -6.47966638313132e-18)
(0.608430778006829 0.149811527893028 -7.1269347828794e-18)
(0.589653197301228 0.120431426596338 7.77103244581438e-18)
(0.556865047343859 0.0911184771143654 5.50433322624797e-18)
(0.514723370927189 0.064571263399621 -5.70352417435897e-18)
(0.469226150032297 0.0426672962640477 -4.64624120294012e-20)
(0.42387337824152 0.0250603239600116 -1.82553445642908e-21)
(0.377416417134939 0.011185834502041 -1.90910997374742e-19)
(0.330591937683307 0.000789891239345165 -9.39092098852651e-20)
(0.283921744835235 -0.00649571435129124 3.5252567384451e-19)
(0.237301279688606 -0.0109924115444504 -7.71501982522162e-19)
(0.191150215831806 -0.0129986058046949 2.26536272404696e-18)
(0.147625470198974 -0.0129994545960294 2.37211268655104e-18)
(0.107686281221541 -0.011446238690047 -1.36798508221025e-18)
(0.0724290022594503 -0.00854098959503145 -1.52739937935705e-18)
(0.0285182327872923 -0.00283692317738606 -5.26117927885142e-20)
(0.000982454161773116 -0.000869075299841249 -4.5766886891484e-18)
(0.0857733340449777 -0.0197103418628543 -1.85987185050528e-18)
(0.158586700506289 -0.0349956935358633 -2.69570646500728e-18)
(0.189828632649416 -0.0419723465293125 -3.34790699582634e-21)
(0.194876147000833 -0.0444294162390322 4.91238074396275e-19)
(0.188693792418613 -0.0447156862704782 1.22219769297116e-20)
(0.177822856709415 -0.04351470120513 -1.73529794343164e-22)
(0.165351935573472 -0.0416417537449678 1.36650471712538e-22)
(0.151946240650269 -0.0390753905164473 -6.42872216683127e-24)
(0.139427174358411 -0.0364043652823136 8.19084805244592e-19)
(0.127604968802996 -0.0336050969537206 -2.06803085776867e-19)
(0.117088263411677 -0.0310044540785141 -8.34949118960214e-19)
(0.10691025160751 -0.0282744442993352 3.28980880086673e-19)
(0.0990009454026883 -0.0259973629238128 -1.20904782000466e-19)
(0.0916353125463065 -0.0238379793574921 -5.24449635834927e-19)
(0.0854737950070583 -0.021893934144349 -3.42729811867798e-19)
(0.0805655520497952 -0.0202233937451172 6.73548205141272e-19)
(0.076702317890725 -0.0187876711044937 -1.22844998635405e-19)
(0.0737378398542654 -0.0175483939489741 -1.55889258081058e-19)
(0.0717639035600849 -0.0164823940256338 1.37142176482894e-19)
(0.0709820520992751 -0.01568549430702 1.19795924846964e-19)
(0.0705613778788285 -0.0149142937547938 -5.43657642645189e-20)
(0.0715137997227921 -0.0143584794298671 -4.45629699439046e-22)
(0.0729214733427238 -0.0138353650288422 1.037848693803e-19)
(0.0753651506541323 -0.013376197175259 -1.26538919638162e-19)
(0.0787217953303916 -0.0129900786143633 -2.81726118458551e-21)
(0.0827192653893488 -0.0125692307236693 5.34418113702904e-20)
(0.0877216246259533 -0.0121288043302274 -2.13664964255173e-20)
(0.0935012064714592 -0.0116116694010735 -3.2125676200456e-20)
(0.10022005543836 -0.0109906255523304 -7.37213334696533e-22)
(0.107877682279043 -0.0102541845708679 -1.04608371914396e-20)
(0.116369442171768 -0.00935377250315174 -1.98287098858801e-23)
(0.125842503366188 -0.00824091005023822 -8.45089556204111e-22)
(0.136325263149972 -0.00692432651218391 -4.27749439987665e-22)
(0.147813117766361 -0.00536961970287345 -2.19712123790062e-21)
(0.160491544248739 -0.00356508471312817 -1.93458477593771e-23)
(0.174866718260688 -0.00196245774486582 -8.01536353272626e-22)
(0.189147913818301 -0.00117965981570731 1.788204986896e-22)
(0.201786073545648 -0.000896645655209519 -3.63801507183259e-23)
(0.213214832187903 -0.000754654086293384 -2.85020189405825e-23)
(0.223543349552479 -0.000663545880339701 5.01431312176877e-23)
(0.23297095275394 -0.000584693417352334 -1.63824277593453e-23)
(0.241554176168965 -0.000516077729521278 1.40113640427478e-23)
(0.249375002044228 -0.000453706625205427 -1.74035671909599e-23)
(0.256486594303541 -0.000397977489470664 0)
(0.262949294287475 -0.000347757574211672 -1.42481970969809e-23)
(0.268815357604231 -0.000302879431955262 1.71170309658336e-23)
(0.274136539065615 -0.000262759029770396 -2.51008286664684e-24)
(0.278960089608581 -0.000227048747760599 1.5668915759252e-23)
(0.283330463601389 -0.000195328671520217 -9.77002204408847e-24)
(0.287288294386964 -0.000167226927396923 -1.56148026471327e-23)
(0.290871108866798 -0.000142380957685678 3.72939802443291e-19)
(0.294112909192747 -0.00012042846180493 7.77053631246654e-22)
(0.297045206018016 -0.000101081115067904 -3.51538567871263e-19)
(0.299695965760047 -8.40067343743687e-05 1.05571272682099e-25)
(0.302092106584758 -6.90193666343027e-05 1.24556709187309e-23)
(0.304255848255429 -5.5779821167819e-05 3.1434318975943e-19)
(0.306211341982646 -4.42582696844945e-05 3.02281731457778e-19)
(0.307974230670581 -3.39880170512362e-05 -6.97952327437193e-24)
(0.309569147972588 -2.53077120827738e-05 -9.8896548141644e-26)
(0.311001780488323 -1.73082654485177e-05 3.78130139805979e-24)
(0.312305117341161 -1.11381997943324e-05 2.49694866463402e-19)
(0.313463599557379 -4.61013538843001e-06 2.35723871676913e-19)
(0.314538788013612 -1.06914071848137e-06 -6.10420265749777e-24)
(0.315461550666388 5.20578167932683e-06 4.80482720890327e-24)
(0.316378097762482 4.90676311944146e-06 -1.76772119430611e-24)
(0.317073409033199 1.35699691448435e-05 1.74320714940247e-19)
(0.317936573776359 5.33248184820884e-06 1.67684476230821e-19)
(0.318342483124888 2.32821265464877e-05 -5.26605203934435e-25)
(0.319375338195504 -5.42884017123805e-06 2.93842410762437e-25)
(0.31924787114391 4.17370873227563e-05 -4.69997029173052e-25)
(0.321000539309809 -4.9931733763373e-05 3.10712679594434e-25)
(0.319762547378627 0.000122453618142345 -2.15863600868509e-25)
(0.322691409505989 -0.000319313002856826 8.01034999142342e-26)
(0.395731444867598 1.74415022722914e-05 -8.89542828611042e-19)
(0.395598980509462 6.21526144136296e-05 -6.09348382926127e-17)
(0.39514955002888 7.87047176320778e-05 -6.08872999869218e-17)
(0.39453946985652 9.43608309720598e-05 -8.81925366649017e-19)
(0.393785189080553 0.000108197213390193 8.8254100038904e-19)
(0.392885856806249 0.000120653529940167 6.09443018076794e-17)
(0.391847673030715 0.000133711029865438 6.09578512240002e-17)
(0.39066467744706 0.000148049635361941 8.83253105883741e-19)
(0.389325566641537 0.000164344543495762 -8.10183666937105e-23)
(0.38781427075374 0.000183203173953436 -1.65383488259844e-25)
(0.386109622685833 0.000205159812797424 -8.98216866162294e-19)
(0.384185282839252 0.000230788553653608 -6.20560966809697e-17)
(0.38200940796861 0.000260733741786166 -6.14049635405141e-17)
(0.379543330030612 0.000295801357353612 6.20017762798173e-17)
(0.376740763573794 0.000336995518548061 6.33011546149539e-17)
(0.373544471951435 0.00038571739480619 9.16742212054392e-19)
(0.369885085620836 0.000443817026832047 2.84131634539402e-22)
(0.36567202395167 0.00051427465998452 1.24702056666642e-22)
(0.36079147444134 0.000601440287428999 -2.58891199303567e-22)
(0.355080140803921 0.000715283543691613 1.94489062474698e-22)
(0.348290905622519 0.000864266145588469 5.08524701262826e-23)
(0.340086004534265 0.00118023369627153 2.7889528803527e-21)
(0.331422382467883 0.00199634594531072 -1.15486000208839e-20)
(0.323656774056872 0.0034454685028233 6.86596067428964e-20)
(0.317398850037456 0.00557487026819953 -1.93121466433293e-17)
(0.312981970657963 0.00840634713591607 -1.90547040080344e-17)
(0.310337853945822 0.0119610651575808 2.01717601786081e-19)
(0.309748569163071 0.0162980742859651 -1.60661521417443e-19)
(0.310868807410411 0.0213636068353927 1.45670093093736e-19)
(0.313826267217488 0.027334906109065 1.04903915914627e-19)
(0.318795869004985 0.0342038438064862 -4.06977685596775e-19)
(0.325342870683083 0.0420196392665674 -1.94922238106096e-20)
(0.333718990312607 0.0509757429842659 -1.13058802233059e-18)
(0.343947208574128 0.061160004474182 -2.31549920815443e-19)
(0.356206436645292 0.0726288503875588 -3.04310129855758e-19)
(0.369725389518409 0.0853323155532463 -4.87501003203527e-19)
(0.385681208443792 0.0997637432773601 1.75379221689388e-18)
(0.403080807436446 0.115373668735912 9.21925651951112e-19)
(0.422907764952768 0.132862669630398 -9.02735481045996e-19)
(0.444687479353644 0.151676057604974 2.47032654880542e-18)
(0.470642972303863 0.1729131488402 9.84472741591724e-19)
(0.500319717822044 0.194698090078551 1.09139757218821e-20)
(0.533348810854877 0.216968779192615 1.45953208524519e-22)
(0.570667734728703 0.238407382600615 2.63026445639193e-20)
(0.610712860628193 0.256993054863759 4.8471687376184e-19)
(0.652136673196599 0.271271436094888 3.87873370551506e-20)
(0.694478056006623 0.280231021312418 2.72959271253173e-18)
(0.735732082426198 0.281981735251407 1.52174057544131e-19)
(0.773580700155693 0.275708278014744 1.08469419690374e-17)
(0.804669569992337 0.260134357600109 1.06326091140618e-19)
(0.823698595667048 0.235371277121775 6.17023673489008e-19)
(0.828829087653081 0.203805612041036 -5.70202574134943e-18)
(0.815832321137107 0.166768214802585 -5.36456698023366e-18)
(0.784318860605299 0.128805233726479 -3.820926395104e-18)
(0.738263379874166 0.0932992492708968 5.83782146145812e-18)
(0.684446881032309 0.0630165790107034 4.30218419406277e-20)
(0.627644776222852 0.0379374525960096 4.92972470233081e-19)
(0.567759380733999 0.0176874934461291 -7.26921052376253e-19)
(0.505809771155481 0.00208413418263527 9.49909652314542e-20)
(0.442569188574832 -0.00924775809335944 1.41959601434628e-20)
(0.378127145925652 -0.0166525705405102 1.04743388851832e-18)
(0.313076184310874 -0.0204726978320407 -7.20274568790504e-18)
(0.250087325491571 -0.0212858848174174 -3.5766695372586e-19)
(0.190693213550418 -0.0196508576918617 -1.11063827572539e-18)
(0.136863884544581 -0.015755046222506 -5.83510077604525e-18)
(0.0797128589053341 -0.00947223534186434 -4.91282424479388e-20)
(0.0646076455853457 -0.0128496860785421 -1.42667743747734e-18)
(0.15553241307026 -0.0355363302824509 -7.45805858308611e-19)
(0.213927463915297 -0.0478141874215964 1.37122660687234e-18)
(0.241679357515395 -0.0537102626740801 9.78566802711202e-21)
(0.24534925641862 -0.0558162998744969 2.74540112074055e-19)
(0.236693244296906 -0.0557354611831518 -2.05332747248167e-19)
(0.222326908650623 -0.0539340527586727 -1.29084256479274e-24)
(0.205928842620597 -0.0513330569362016 -2.12213895439451e-22)
(0.188465288594383 -0.0479261081681276 -8.69533639934232e-21)
(0.172094617382549 -0.0444116470595111 -6.67115930484658e-19)
(0.156762342129768 -0.0407928065954489 -1.0149190827075e-18)
(0.143159517198856 -0.037444588702113 1.35082866803502e-18)
(0.130205583697909 -0.0340182083046916 2.1247989840044e-19)
(0.119980249592327 -0.0311419400829655 -5.34253323253321e-19)
(0.110648429713738 -0.0284552342515291 -1.45055813508225e-21)
(0.102814916942744 -0.026055590921407 6.4385523010919e-19)
(0.096537776300845 -0.0240002848419486 -4.58866623800811e-19)
(0.0915672600735735 -0.0222383599863413 1.54067041303106e-19)
(0.0877115160475333 -0.0207249738728696 -3.93854697707054e-20)
(0.08504245193629 -0.0194321171776944 9.55693446136384e-23)
(0.0837719711378412 -0.0184486112905481 -3.24392895956671e-20)
(0.0829898953389038 -0.0175194462624526 -3.1940034692443e-20)
(0.0837495046294882 -0.0168379109850949 -2.59510726319596e-20)
(0.0850903551739242 -0.0162051022266937 -7.13710884759251e-20)
(0.087595238244677 -0.0156573018580554 3.98436766362616e-20)
(0.0911496790168874 -0.0151930483562769 -1.51216080542756e-20)
(0.0954541723543478 -0.0147011968779251 -2.15869581432493e-23)
(0.100884691080812 -0.0141943517939254 -1.2910686750691e-20)
(0.107211141275436 -0.013608129806889 9.55076856162165e-21)
(0.11459797308096 -0.0129140900765383 2.23222289353022e-22)
(0.12305289418668 -0.0120948526241526 2.05012842542715e-23)
(0.132470950052262 -0.0110990310601659 -1.99575186914119e-23)
(0.143005201367635 -0.0098739098552007 -1.58346569698299e-21)
(0.154700008009559 -0.00842612611701238 2.18005390287824e-22)
(0.167560753249708 -0.00671975176422108 1.87918270142734e-22)
(0.181772958975812 -0.00475278652532055 -3.21843389084225e-22)
(0.19787617840094 -0.00299339362085789 -4.61101733023825e-23)
(0.214131908524296 -0.0020828788688145 1.01533470137111e-22)
(0.228876943786668 -0.00170255037158562 1.69198913712634e-23)
(0.24241987372899 -0.00148755451676097 9.93725704797098e-24)
(0.254841740461824 -0.00133672871953817 7.73450338976258e-24)
(0.266336422674953 -0.00120506016318929 8.39709397773174e-24)
(0.276961662364101 -0.00108808185918298 2.07005146121115e-24)
(0.286796927009112 -0.000980851811163968 -1.55282618462464e-23)
(0.295892796022142 -0.00088349771130854 2.22853806883686e-24)
(0.304306207339081 -0.000794684281123027 -4.68549727607443e-24)
(0.312086497295758 -0.000714126964491899 1.49057750980962e-23)
(0.319282786644764 -0.000641081347460805 -1.0512712883903e-23)
(0.325940201308597 -0.00057504668411891 1.18113872220222e-23)
(0.332101500273814 -0.000515426074033214 -1.48659645261367e-23)
(0.337806003470284 -0.00046167292236841 2.27020593107781e-20)
(0.343090268347794 -0.000413253645887447 1.58703664216594e-18)
(0.347987723076343 -0.00036964409091233 6.07478001326417e-21)
(0.352529485654833 -0.00033040790894906 -1.49861053061467e-18)
(0.356743547106981 -0.000295072572607459 -2.1390722289803e-20)
(0.360656887804987 -0.000263329357550145 1.91382033796253e-20)
(0.364292273011738 -0.000234716411581353 1.3584629367421e-18)
(0.367674173312286 -0.000209107536941307 1.30874050288323e-18)
(0.370819496045686 -0.000185917780543305 1.83918443106052e-20)
(0.373753090398796 -0.000165423964794583 -7.58399400083494e-25)
(0.376482666353144 -0.000146583758689549 1.51996990087893e-20)
(0.379040365320752 -0.000130563561896625 1.07898698061051e-18)
(0.381414898738859 -0.000114953647912887 1.02065921121981e-18)
(0.383663745368652 -0.000103307925828844 1.43465751379252e-20)
(0.385727850786467 -8.94030710283077e-05 9.89949204512093e-25)
(0.387739792528416 -8.32906959288657e-05 1.06085101410551e-20)
(0.389510929324261 -6.80882503331039e-05 7.52871422067549e-19)
(0.39138907153073 -7.19618569441898e-05 7.25061396573377e-19)
(0.39282270833638 -4.79052878441361e-05 1.02041370778347e-20)
(0.394773744460214 -7.60495897125801e-05 -4.4789855799266e-25)
(0.395668920965497 -2.0754261276229e-05 3.5258164403696e-25)
(0.398183652408353 -0.000126174089455795 -4.88505144414669e-26)
(0.398061552268505 8.07073128094231e-05 1.01572140464849e-25)
(0.401918699016121 -0.000490574948106326 -4.55022116662583e-26)
(0.489083824040914 2.79607339775821e-05 -4.01931965187909e-24)
(0.489053851709761 9.19818404767642e-05 2.123337397447e-17)
(0.488686521097469 0.000126100418618316 2.12258802814048e-17)
(0.488147851411681 0.000159906265301493 3.72389654834369e-23)
(0.487435125420598 0.000190625121402739 -1.5892813774683e-23)
(0.486540736431854 0.000219642712253458 -2.12279544962116e-17)
(0.485465899788754 0.000249596667213491 -2.12652990591974e-17)
(0.484203274507827 0.000281636283415731 1.80809019974109e-22)
(0.482741268580571 0.000316975704580904 -7.84845121437718e-23)
(0.481063749693251 0.000356738615601904 -2.11352086214888e-23)
(0.479149316252404 0.000401995269105417 1.4076417071716e-22)
(0.476970830392134 0.000453909846537747 2.15769182200115e-17)
(0.474494807637786 0.000513799688604058 2.17266410564923e-17)
(0.471679967188864 0.000583271956813764 -2.18455457313641e-17)
(0.468476176186819 0.000664322240295577 -2.20525208066991e-17)
(0.464821182946185 0.000759621330656616 -4.4281266022581e-23)
(0.460638951708755 0.000872725167137903 4.32236163915801e-23)
(0.45583107513838 0.00100901743948735 2.34583615043114e-23)
(0.45027398853633 0.00117638677087589 6.99977494174443e-23)
(0.443795656722446 0.00139123732764044 -7.38902896108309e-23)
(0.43614951542325 0.00167281843543997 -3.03749376872426e-22)
(0.426958354455003 0.00216860403477307 -2.12271835763661e-21)
(0.41680156346822 0.0032463658208194 -2.32873715637159e-22)
(0.40679789010511 0.0050462135895925 7.83219318185051e-19)
(0.397714900371106 0.00761756737518973 2.39949615632756e-17)
(0.390191872448747 0.0109820582490526 2.40654932087629e-17)
(0.384508365256244 0.0151565925197906 8.12454377857935e-19)
(0.381124600529225 0.0202048566584296 4.40373046400458e-21)
(0.379934926667109 0.026073577634385 -1.840503238885e-19)
(0.381067116267541 0.0329550253285513 -1.39098751353849e-19)
(0.384718439451289 0.040843999715945 -2.30067306303502e-19)
(0.390546512607459 0.0498196505969749 4.34675490896701e-21)
(0.398727628453772 0.060090231107604 5.40632935510249e-19)
(0.40929456103243 0.0717627288908519 -1.92263052516051e-19)
(0.422441318150235 0.0849275229213696 -8.39690238382466e-20)
(0.437588954621274 0.0995996777028222 2.12868091019525e-19)
(0.455640114605199 0.116255595590538 -7.32736917363559e-19)
(0.476017535607966 0.134455028076411 -3.69550593130998e-19)
(0.499408858173062 0.154876055606457 1.12702245429378e-19)
(0.525698799071388 0.177048321336614 -8.77328775699907e-19)
(0.556516246549832 0.201862565049361 -3.32161273822059e-19)
(0.592187850890518 0.227569019609087 -2.5863478203135e-19)
(0.632290570646723 0.254022717778617 -9.99825596056678e-21)
(0.677911079549267 0.279759148050096 -5.37396483229704e-19)
(0.727928124670428 0.302710289962256 -4.95164532436286e-19)
(0.781110521206682 0.321262026366831 1.98360001776518e-20)
(0.836769400849734 0.334029452888452 1.82030994926426e-18)
(0.89304850369998 0.338844176038046 -6.48561360526538e-19)
(0.947477299172379 0.334565276208919 -1.77382521612529e-18)
(0.996808737174542 0.319634382662416 5.55129869469751e-22)
(1.03559065473234 0.293951761916798 3.75029293332201e-18)
(1.06074545705136 0.259596254237368 2.10525132441394e-18)
(1.06733195360406 0.217761664812041 -4.71505518543596e-20)
(1.05296148646043 0.173233498053323 -2.96165857178604e-18)