/*--------------------------------*- C++ -*----------------------------------*\
| =========                 |                                                 |
| \\      /  F ield         | OpenFOAM: The Open Source CFD Toolbox           |
|  \\    /   O peration     | Version:  v2006                                 |
|   \\  /    A nd           | Website:  www.openfoam.com                      |
|    \\/     M anipulation  |                                                 |
\*---------------------------------------------------------------------------*/
FoamFile
{
    version     2.0;
    format      ascii;
    class       volVectorField;
    location    "0";
    object      cellCenters;
}
// * * * * * * * * * * * * * * * * * * * * * * * * * * * * * * * * * * * * * //

dimensions      [0 1 0 0 0 0 0];


internalField   nonuniform List<vector> 
14000
(
(0.04547716073229 0.0032984659388385 4.70553353525929e-18)
(0.136431475784883 0.00329846593922766 -9.63735264551171e-20)
(0.227385789348204 0.00329846593892888 2.35276684467735e-18)
(0.318340106689758 0.00329846593899835 0)
(0.409293862326446 0.00333816325051593 7.34763551324588e-18)
(0.500246011741945 0.00356118164336403 0)
(0.591194881683689 0.00417763462134781 -2.45074220898019e-18)
(0.682135905936853 0.00539998595903331 -9.64250670428334e-20)
(0.773060444899495 0.00743777452099087 -4.81785386452271e-18)
(0.863954324369 0.0104958898151703 0)
(0.954796290681478 0.0147806061348376 0)
(1.04555862469555 0.0204756359813076 0)
(1.13620362275896 0.0277678264475495 0)
(1.22668674479633 0.0368279858400009 7.57052700764934e-18)
(1.31695658316265 0.0477883904040828 0)
(1.40695278328263 0.0607852437039921 0)
(1.49660850840207 0.0759361633961578 -2.62445841583911e-18)
(1.58585718076476 0.093312045220322 2.57580491666689e-18)
(1.674633232715 0.112948549477248 -2.72998537380047e-18)
(1.7628639919233 0.134889906191619 -2.60285098592564e-18)
(1.85049534604605 0.159108039229201 5.55465650703297e-18)
(1.93747554509149 0.185559413366911 4.39801875448962e-18)
(2.02376559987994 0.214176945986216 -5.93787531150087e-18)
(2.10933949829144 0.24485948131259 -1.64057268715784e-18)
(2.19424402499783 0.277358239445998 1.95705306295217e-19)
(2.27858252825096 0.311299727957505 -1.67586798146908e-18)
(2.36249998080569 0.346280946272265 -7.19230966260258e-18)
(2.44621905438069 0.381747239459874 -2.94499944208741e-19)
(2.52997689287253 0.417133800792349 9.82221072060315e-20)
(2.61400495143086 0.451887510286201 1.96489463178028e-19)
(2.69852643130742 0.485437098374863 4.19053547276266e-18)
(2.78373327404556 0.517220148769678 9.81697814575806e-20)
(2.86977263081504 0.546690857245484 0)
(2.95673089907044 0.573345088736375 0)
(3.04460596153989 0.596818218252926 -2.37413202848845e-18)
(3.13333598657463 0.616836770861683 2.41362515602798e-18)
(3.22280070543272 0.63328599989387 4.8931993194149e-18)
(3.31283848158063 0.646261762180431 2.56999647217602e-18)
(3.40328747743158 0.655987508698148 0)
(3.4940097429448 0.66272151901876 0)
(3.58489700684752 0.66665807883173 -2.51157297600976e-18)
(3.67585978480744 0.667980735773895 -4.92391469408294e-18)
(3.76682480174188 0.666865518847678 -5.00354053102278e-18)
(3.85773215959775 0.663466583331793 4.97363269478808e-18)
(3.94853282454521 0.657924523754455 -9.59413520351235e-20)
(4.03918755905038 0.650382463742767 2.43920139572143e-18)
(4.12966483358991 0.640962198900331 0)
(4.21994063682695 0.629792261555679 -2.37208223370734e-18)
(4.30999784700261 0.616990938528026 0)
(4.39982007054008 0.602645865688585 9.54545324355766e-20)
(4.48939766871035 0.586856097248245 0)
(4.57873048418197 0.569747766229119 0)
(4.66782017531521 0.551422815461804 4.11483916101149e-18)
(4.75667029141485 0.531979118313501 0)
(4.84529588049032 0.511543426027468 -2.15115710475127e-18)
(4.93372208223774 0.490271123777498 -9.52251851087962e-20)
(5.0219758443895 0.468299366606302 7.45596200308164e-18)
(5.11008177476751 0.445749526055493 -5.44977056749809e-18)
(5.1980755060709 0.422770542517796 1.77026004015371e-18)
(5.28599296578257 0.399506768533804 -9.52546828615925e-20)
(5.37386153720739 0.376060482612005 6.82224073965828e-18)
(5.46170746004776 0.352534060324461 -3.27954174702152e-18)
(5.54957343820973 0.329086780568453 9.78704699347368e-18)
(5.63748713211647 0.305818887865918 0)
(5.72546659792806 0.282802535334078 0)
(5.81354554355605 0.260173354208373 -6.05468601648577e-18)
(5.90175131951669 0.238043085139051 -4.46678746831178e-18)
(5.99009509764481 0.216470102489455 0)
(6.07860056369048 0.195573976726913 0)
(6.16728465778265 0.175445476352048 -5.67307545304769e-18)
(6.25615124331388 0.156139324816622 5.38155185624695e-18)
(6.3452089118258 0.137733500631956 9.57153879510589e-20)
(6.4344629015717 0.120305144207744 -7.99653732416085e-18)
(6.52391716727224 0.103934539866437 0)
(6.61356726879173 0.0886705450085253 -9.5858311256551e-20)
(6.70340706828085 0.0745643811530711 -2.49516421346159e-18)
(6.7934277581617 0.0616597675966004 0)
(6.88361811112964 0.0499993012593171 9.60003706567903e-20)
(6.97396591395686 0.0396257693152311 -2.51574901690762e-18)
(7.0644550140957 0.0305641961071187 2.49722988736668e-18)
(7.15506693240329 0.0228188667348632 0)
(7.2457824266429 0.0163990697715567 0)
(7.33658299118607 0.0113129061309083 -4.92067100991248e-18)
(7.4274481767209 0.00754402991511653 0)
(7.51835830922392 0.00507372110145927 -9.63139233949595e-20)
(7.60929460263845 0.00387727429068797 -7.25213204776649e-18)
(7.70024443851053 0.00359945260423885 -4.80302838508839e-18)
(7.79119885408385 0.00360147671892707 2.44968116919694e-18)
(7.88215312579583 0.00359917960925773 -9.63735817424162e-20)
(7.97310744228728 0.00359985464360101 4.89937310906795e-18)
(8.06406178966211 0.00359967110399164 -4.89937151518973e-18)
(8.15501613702261 0.00359858348012713 0)
(8.24597038217916 0.00359775167748719 -4.80299992445505e-18)
(8.33692469215459 0.00359714401361958 9.63734708490741e-20)
(8.42787903238307 0.00359603140826562 -2.44967988348322e-18)
(8.51883338105018 0.00359464788704034 0)
(8.60978767217991 0.00359259293536251 0)
(8.70074194069779 0.00359130811965313 4.89934185179893e-18)
(8.79169629080738 0.00358963776089775 0)
(8.88265064974132 0.00358710930491291 2.44966052933901e-18)
(8.97360498473416 0.00358464094084658 -4.80294197939865e-18)
(9.0645592544722 0.00358120006547382 2.44965197239584e-18)
(9.15551354612177 0.0035773646608677 -9.63734187729139e-20)
(9.2464678945756 0.00357399463611756 -9.63734143782384e-20)
(9.33742221498318 0.00357018457479295 0)
(9.42837656727239 0.00356566139739132 2.44961950971425e-18)
(9.51933086601309 0.0035608087354088 2.44961506467518e-18)
(9.610285123212 0.00355598351114198 0)
(9.70123945705472 0.00355112481906922 0)
(9.79219381541772 0.00354634366424992 -2.44958584046351e-18)
(9.88314816779775 0.00354051114514409 2.44957425000305e-18)
(9.97410243520635 0.00353435705178296 -2.44956702857948e-18)
(10.0650567344425 0.0035285320838715 9.70183658027026e-18)
(10.1560110724477 0.0035223114009615 2.44954249121571e-18)
(10.24696542937 0.00351559462276328 0)
(10.3379197232113 0.00350837857812281 4.80266608232913e-18)
(10.4288739692709 0.00350223727357124 0)
(10.519828317624 0.00349588446904221 0)
(10.6107826773454 0.00348853750452441 -4.89896084898301e-18)
(10.7017370178064 0.00348132409568377 0)
(10.7926912916031 0.00347407807011418 0)
(10.8836455827899 0.0034668088373847 0)
(10.9745999164918 0.00345970485678221 0)
(11.0655542770651 0.00345159152757781 0)
(11.1565086079621 0.00344418328381834 2.64214912183319e-18)
(11.2474629113187 0.00343673959288888 -2.44938982488476e-18)
(11.3384171442924 0.00342855674765198 -4.89875116030582e-18)
(11.4293714624547 0.00342139338857714 4.80234572830381e-18)
(11.5203258183336 0.00341410907097833 -2.35297423941872e-18)
(11.6112801537473 0.00340688224179807 -9.63732909238684e-20)
(11.7022344601791 0.00339975515935953 9.63732972911474e-20)
(11.7931887477597 0.00339360711339026 2.44931186911648e-18)
(11.8841430770112 0.00338726074902192 0)
(11.9750974305061 0.0033798170169931 0)
(12.0660517291479 0.00337354610852991 -4.89855576191412e-18)
(12.1570059901074 0.00336752071113735 0)
(12.2479602994763 0.00336136028551303 0)
(12.3389146595992 0.00335547107279444 0)
(12.4298689847425 0.00334995654553794 9.63733764612347e-20)
(12.5208235423345 0.00332306080692304 -2.44918424735608e-18)
(0.0454740477229995 0.010054168990059 0)
(0.136422136790417 0.0100541689904866 0)
(0.227370224376322 0.0100541689901584 -4.68258579908256e-18)
(0.318318315720775 0.0100541689902347 -2.6304180366623e-18)
(0.40926584590065 0.0100936594817675 -4.87547250351106e-18)
(0.500211771978506 0.0103155159645845 0)
(0.591154429271641 0.0109287572736203 0)
(0.68208927531825 0.0121447402714624 -2.44144076962583e-18)
(0.773007715648513 0.0141719121532698 0)
(0.863895649904297 0.0172140949839911 0)
(0.954731934816907 0.0214764884047715 -2.26717271276801e-18)
(1.04548899700709 0.0271418478097842 5.13713019137668e-18)
(1.13612932722694 0.0343960468754928 -5.16916082691735e-18)
(1.22660861985568 0.0434090040409758 1.93084490239985e-19)
(1.31687573427523 0.054312306466241 -7.60304985103002e-18)
(1.40687063002188 0.0672414481882865 2.37291621000876e-18)
(1.49652681897972 0.0823134341940254 -2.41148206564037e-18)
(1.58577807159473 0.0995987909656697 -5.10839569945522e-18)
(1.67455916143784 0.119132993190994 7.72905733036722e-18)
(1.76279779316817 0.14096004074887 1.93607774210869e-19)
(1.85044014135578 0.165052003772055 3.87432464311894e-19)
(1.93743472000463 0.191365574435443 -2.73494714339853e-18)
(2.02374274896898 0.219834019510166 0)
(2.10933834637061 0.25035671095098 0)
(2.19426806863665 0.282686163186755 0)
(2.27863471915162 0.316450830019505 -4.98935692565974e-18)
(2.36258252608912 0.351249808123011 -3.14167723029332e-18)
(2.44633300531557 0.386531330639513 3.47919081814821e-18)
(2.53012206675752 0.421733532646703 1.61720162347309e-18)
(2.61417996341379 0.456306175315027 0)
(2.6987287389867 0.489680965353911 6.04888346555948e-18)
(2.78395933734912 0.52129841791295 0)
(2.87001814848119 0.5506155738115 0)
(2.95699111912675 0.577130926661534 2.12590261079565e-18)
(3.04487613658249 0.600481752995616 -2.1714884179985e-18)
(3.13361169291176 0.620396002975642 2.20949496991009e-18)
(3.22307812756927 0.636759528089651 4.67625002626029e-18)
(3.3131146381564 0.649667684985503 -1.93487616910858e-19)
(3.40356021775319 0.659342759744466 -2.47928600165736e-18)
(3.49427763723444 0.666041685674091 2.2986315178741e-18)
(3.58515918904685 0.669957735897063 0)
(3.676115851724 0.671273501591634 -7.29487521056109e-18)
(3.7670747319407 0.670164094566777 -4.97579423192005e-18)
(3.85797624289378 0.666782866936725 -1.92452365320436e-19)
(3.94877160594987 0.661269680752798 0)
(4.03942178596769 0.653766914013417 -1.92198524574332e-19)
(4.1298954209216 0.64439572780459 2.20609137508145e-18)
(4.22016861989324 0.633283984850882 2.36410627836072e-18)
(4.31022435590281 0.620549355725084 4.65343527335397e-18)
(4.40004631899033 0.606279019738863 -4.18936961599226e-18)
(4.48962492149691 0.590571515044018 0)
(4.5789600039795 0.573552317486594 6.21620638960806e-18)
(4.66805322266174 0.555322838803302 4.1176938284838e-18)
(4.75690810363681 0.535980442372099 1.91635992150678e-19)
(4.84553961941421 0.515651219058358 -1.91611385187777e-19)
(4.93397277473805 0.494489744364026 -1.91600288487058e-19)
(5.02223438419244 0.472632458839521 1.77839816015102e-18)
(5.11034892340173 0.450200101559478 3.84952818706713e-18)
(5.19835184213353 0.427340836965388 7.13904627064884e-18)
(5.28627887993506 0.404198265479083 -1.64588501276181e-18)
(5.37415728293063 0.380874132875218 -1.00102897444033e-17)
(5.4620131496645 0.357470281220789 1.91676824010112e-19)
(5.54988896205788 0.334145159592202 0)
(5.63781224154577 0.310998490394128 0)
(5.7258009479183 0.288102050772466 -6.01016766687017e-18)
(5.81388861124491 0.265590765285298 0)
(5.9021024440118 0.243575792559951 4.36247712517897e-18)
(5.9904535596831 0.222115202835694 -2.72180451950423e-18)
(6.07896551650917 0.201327943547627 -1.91952996358962e-19)
(6.16765517258615 0.181304310452317 1.91997841670002e-19)
(6.25652636765626 0.162098741831357 -2.56731620354764e-18)
(6.34558765026734 0.143788809975227 1.9209085209847e-19)
(6.43484422969005 0.126451253378274 -5.34894834630226e-18)
(6.52430004142893 0.110165938117994 0)
(6.6139506690551 0.0949814670562364 0)
(6.70379000579029 0.0809487948454329 7.52684645489081e-18)
(6.79380929110611 0.0681114130170648 0)
(6.88399735489953 0.0565116965537665 0)
(6.97434204860534 0.0461922097177071 0)
(7.06482730366547 0.0371778464718297 7.45065358073398e-18)
(7.1554347383683 0.029472869589903 -4.55281464983656e-18)
(7.24614520899304 0.0230865192474112 -1.92561299327531e-19)
(7.33694030784414 0.0180268541501401 0)
(7.42779969184753 0.0142776135588231 0)
(7.51870378965204 0.0118201749772878 7.12388841556239e-18)
(7.60963391300955 0.0106299617165201 0)
(7.70057752890779 0.0103535875426516 -2.43820291980412e-18)
(7.79152571847193 0.0103556011090646 7.12180206030968e-18)
(7.88247376418457 0.0103533159686094 4.49088320599934e-18)
(7.97342185474468 0.0103539874856023 0)
(8.06436997595619 0.0103538049021609 7.1218149040332e-18)
(8.15531809722729 0.0103527229446169 0)
(8.24626611668336 0.0103518954762441 7.31456768637744e-18)
(8.33721420076603 0.0103512909774462 2.43818182173732e-18)
(8.42816231484255 0.0103501841690264 -1.92750037050327e-19)
(8.51911043740127 0.0103488078554636 4.87635484622622e-18)
(8.61005850265892 0.0103467636103896 -2.24542764592281e-18)
(8.70100654539932 0.0103454854882939 -4.49084826688727e-18)
(8.791954669399 0.0103438238316442 -2.43816872152933e-18)
(8.88290280211282 0.0103413085486848 -7.12174279111825e-18)
(8.97385091101931 0.0103388530447851 -1.92749972175444e-19)
(9.06479895506402 0.010335430096145 0)
(9.1557470208183 0.0103316146732812 2.43814647075924e-18)
(9.24669514311699 0.0103282622062633 -2.43814214427554e-18)
(9.3376432375339 0.0103244719949623 -7.12165507927939e-18)
(9.4285913636644 0.0103199723826651 0)
(9.51953943650426 0.0103151450031641 0)
(9.61048746801841 0.0103103449176626 -2.43811066049474e-18)
(9.70143557578105 0.0103055115387363 -2.2453506357703e-18)
(9.79238370792558 0.0103007552934147 -2.43809299003031e-18)
(9.88333183419682 0.0102949531611171 0)
(9.97427987581696 0.0102888311305249 1.92749881361299e-19)
(10.0652279491821 0.0102830365097139 -4.49062261794967e-18)
(10.1561760610746 0.010276848236182 -2.43805162414043e-18)
(10.2471241918313 0.0102701664515592 0)
(10.3380722597902 0.0102629880024543 0)
(10.4290202801672 0.0102568786934348 0)
(10.5199684024312 0.0102505589861256 0)
(10.6109165359249 0.010243250298741 0)
(10.7018646502701 0.0102360744712497 0)
(10.7928126982968 0.010228866197193 0)
(10.883760763624 0.0102216348361246 1.92749816702957e-19)
(10.9747088712324 0.0102145678668369 -2.43794429372214e-18)
(11.0656570056552 0.0102064968070648 0)
(11.1566051103703 0.0101991271599931 0)
(11.2475531879189 0.010191722250177 -4.68306212620804e-18)
(11.3385011952632 0.0101835820369213 2.43789234641894e-18)
(11.4294492874347 0.0101764559979566 1.92749815006231e-19)
(11.5203974171124 0.0101692096311741 0)
(11.6113455264347 0.0101620204531792 0)
(11.7022936069203 0.0101549305024187 -7.12077762231254e-18)
(11.793241668606 0.0101488144871954 0)
(11.8841897718632 0.0101425011867932 -4.87564030188017e-18)
(11.9751378991737 0.0101350962357699 0)
(12.0660859718442 0.0101288579987322 0)
(12.1570340071572 0.0101228639930483 -1.24701553276776e-16)
(12.2479820905218 0.0101167356623958 -1.25554040922449e-16)
(12.3389302244571 0.0101108771321037 4.68278151680743e-18)
(12.4298783235078 0.0101053913350707 0)
(12.520826655191 0.0100786357211066 0)
(0.0454707849371597 0.0171349099053266 -9.63766721179138e-20)
(0.136412348467911 0.0171349099057964 -2.14201990711463e-18)
(0.227353910525282 0.0171349099054357 -7.00430962877866e-18)
(0.31829547632057 0.0171349099055196 -2.14201973103024e-18)
(0.409236481517562 0.0171741836262972 -2.33483520406265e-18)
(0.500175884833664 0.0173948222958476 0)
(0.591112030568362 0.0180046974126181 1.9277846423902e-19)
(0.682040401155698 0.0192140056706902 0)
(0.772952449429414 0.0212300500728974 -1.9283185673342e-19)
(0.863834152428733 0.0242555338840775 0)
(0.954664482591596 0.0284945303895268 1.22257890279201e-16)
(1.04541601931393 0.0341287918277009 1.16207204352286e-16)
(1.13605145710553 0.0413431716261839 0)
(1.2265267360806 0.0503066555425878 -4.80478928408768e-18)
(1.31679099549542 0.0611501084984894 -7.08770412309546e-18)
(1.40678452411077 0.0740082808665638 2.45725867199661e-18)
(1.49644119922311 0.0889975354864713 0)
(1.58569515623379 0.106188011814628 2.34461555813657e-18)
(1.67448152635796 0.125614989993821 1.93502451344606e-19)
(1.76272840938151 0.147322228682488 1.93607498486106e-19)
(1.8503822805927 0.171281951309841 0)
(1.93739193069294 0.197451088388702 0)
(2.02371879862782 0.225763272880986 0)
(2.1093371390272 0.256118429857021 1.94089698504672e-19)
(2.19429326909165 0.288270430341581 1.65545721381169e-18)
(2.27868942112275 0.321849768009702 -8.01052765422106e-18)
(2.36266904288828 0.356457737697923 0)
(2.44645243879066 0.391545599590722 -1.65898430566247e-18)
(2.5302742254165 0.426554572123821 1.92239067155216e-18)
(2.61436339577509 0.460937436252286 3.78614621458263e-18)
(2.69894078032671 0.494129018162475 7.63882126048542e-18)
(2.78419627727271 0.525572905474732 -3.84486180023422e-18)
(2.87027547878008 0.55472912092502 1.00856451489659e-17)
(2.9572638591956 0.581098913261329 4.0555735059704e-18)
(3.04515931060353 0.604321552017329 2.26551892694867e-18)
(3.13390066435368 0.624126481015287 -6.71121271814854e-18)
(3.22336889736014 0.640400178686669 -6.60840689331575e-18)
(3.31340408149288 0.653237477440228 0)
(3.40384608046555 0.662859442423232 -4.36215895495244e-18)
(3.49455842075436 0.669521595908331 2.38629653162621e-18)
(3.58543398564789 0.673416149734687 0)
(3.67638423881557 0.674724692604199 2.39030958364603e-18)
(3.76733668705717 0.673621375002579 4.76541643454153e-18)
(3.85823206979455 0.670258707235881 0)
(3.94902187586893 0.664775783635656 0)
(4.03966728226931 0.657314200695934 0)
(4.13013710252647 0.647994454455567 1.92088394730181e-19)
(4.22040757193413 0.636943705817097 1.91993144783002e-19)
(4.31046176285174 0.624278979457098 2.03694019207762e-18)
(4.40028345295905 0.610086976160359 6.18773385351386e-18)
(4.48986310812453 0.594465693189983 -1.91766277636977e-19)
(4.57920056669187 0.577539917596162 8.0475887003183e-18)
(4.66829748264525 0.559410504470031 -1.68126925490446e-18)
(4.75715735774952 0.540174282661893 0)
(4.84579508538166 0.519956650886787 -1.97641828005582e-18)
(4.93423552884078 0.498911336017761 -1.74044634956081e-18)
(5.02250536315664 0.47717402973794 -8.67526893700109e-18)
(5.11062892539546 0.454864808223719 0)
(5.198641473592 0.432131022632262 3.60599053796269e-18)
(5.28657855031553 0.409115485079239 1.76191795618521e-18)
(5.37446725790975 0.385919382975365 -1.14750241121114e-18)
(5.46233354696906 0.362643999212137 -3.36855332876646e-18)
(5.55021966674943 0.339446913119475 3.10342220613005e-18)
(5.63815299301067 0.316427299865793 4.64647907692202e-18)
(5.72615138453621 0.293656542535396 -1.19601937605743e-18)
(5.81424818499672 0.271268825007219 0)
(5.90247046220745 0.249374695884713 -1.9186379518312e-19)
(5.99082926845342 0.228031906650637 1.91905912294303e-19)
(6.07934802835076 0.207358751729687 2.73599751580912e-18)
(6.16804351401613 0.187445031392648 0)
(6.25691954040347 0.16834488502883 -2.44952384160102e-18)
(6.34598461099828 0.150135459164543 0)
(6.43524390469416 0.132893071040761 0)
(6.52470133685506 0.116697148368165 0)
(6.61435251589953 0.101596027223882 0)
(6.70419136761531 0.0876403825539588 0)
(6.79420918078727 0.074873467167261 1.92329488350167e-19)
(6.88439484526611 0.0633374234305552 1.92377114045425e-19)
(6.97473628026042 0.0530745819700108 2.39539161182954e-18)
(7.06521750524268 0.0441097000959386 -6.94317274324123e-18)
(7.15582024062029 0.0364470171822825 4.72919277421657e-18)
(7.24652544592828 0.0300957226781973 1.92561444309474e-19)
(7.33731481611587 0.0250638310510464 1.92605568559868e-19)
(7.42816811945824 0.0213351708172989 -2.53182531267798e-18)
(7.51906589221642 0.0188912216995094 0)
(7.60998954865665 0.017707541911341 0)
(7.70092664531899 0.0174326848984157 -2.33528029336559e-18)
(7.7918683093213 0.0174346874089076 0)
(7.88280982948242 0.0174324148136136 2.33526964043085e-18)
(7.97375139456229 0.0174330826440023 0)
(8.06469299005043 0.01743290106273 -1.9275019799194e-19)
(8.15563458567561 0.0174318250441262 -2.14251364607165e-18)
(8.24657607989343 0.0174310021185862 1.92750214229989e-19)
(8.33751763853629 0.0174304009371008 6.62028040596989e-18)
(8.42845922690133 0.0174293002045409 0)
(8.51940082379423 0.017427931445406 2.14250590769799e-18)
(8.61034236363376 0.0174258984220871 2.33525622049931e-18)
(8.70128388105518 0.0174246273156478 0)
(8.79222547938745 0.0174229747797735 0)
(8.88316708631835 0.0174204733036342 8.95547363826172e-18)
(8.97410866958215 0.0174180312786536 -2.33524088808816e-18)
(9.06505018839607 0.0174146271192602 1.92750056260394e-19)
(9.15599172870789 0.0174108326395037 0)
(9.24693332529178 0.0174074985749848 1.9275008676944e-19)
(9.33787489416626 0.0174037291687504 -2.33521555088421e-18)
(9.4288164945782 0.0173992542553356 0)
(9.51975804196979 0.0173944533747603 -4.67040409485371e-18)
(9.61069954826215 0.017389679637517 0)
(9.70164113038866 0.0173848727896206 0)
(9.79258273675199 0.0173801426522749 2.1424254230768e-18)
(9.88352433735701 0.0173743723687834 -2.33516492014702e-18)
(9.97446585364664 0.0173682839436229 -2.33515831287361e-18)
(10.0654074015947 0.017362521129981 0)
(10.1563489878169 0.0173563668251524 -1.92750000431205e-19)
(10.2472905928479 0.0173497217177419 0)
(10.3382321353778 0.0173425826730389 -1.92749967619529e-19)
(10.4291736305353 0.0173365068989486 0)
(10.5201152271537 0.0173302218812519 0)
(10.6110568348566 0.0173229533126359 0)
(10.7019984235282 0.0173158168746557 0)
(10.7929399462437 0.017308648168469 -2.33505897342889e-18)
(10.8838814861659 0.0173014565011678 1.92749961321964e-19)
(10.9748230681241 0.0172944283239316 -2.33503357892544e-18)
(11.0657646768369 0.0172864015672915 7.00505336269949e-18)
(11.1567062558091 0.0172790723739329 0)
(11.2476478080068 0.017271708111116 0)
(11.3385892901873 0.0172636125810011 -4.47721803370986e-18)
(11.4295308568163 0.0172565256577147 -2.33496939814707e-18)
(11.5204724607308 0.0172493190676889 -2.3349584818189e-18)
(11.6114140444052 0.0172421693523933 0)
(11.7023555993951 0.0172351183198438 -4.47712287793421e-18)
(11.7932971356385 0.0172290358764618 -6.61927796543104e-18)
(11.8842387133496 0.0172227572308335 1.92749956576356e-19)
(11.9751803149146 0.0172153929266803 -6.61920420166622e-18)
(12.0661218620631 0.0172091889330191 0)
(12.1570633721944 0.0172032278293914 1.16424371352879e-16)
(12.2480049300023 0.0171971331378845 1.15144799526028e-16)
(12.3389465381887 0.0171913067662511 0)
(12.4298881115901 0.0171858510817442 0)
(12.5208299178168 0.0171592423342724 -4.66961934037006e-18)
(0.0454673651685599 0.0245563272569067 2.23659857960547e-18)
(0.136402089198809 0.0245563272574229 0)
(0.227336811764201 0.0245563272570266 0)
(0.318271538045888 0.0245563272571187 0)
(0.409205704322805 0.0245953737776064 2.23665781617863e-18)
(0.500138271046829 0.0248147360409652 0)
(0.59106759193179 0.0254210830075656 -4.47598180490317e-18)
(0.681989175505392 0.0266233953841659 -1.92801897193942e-19)
(0.772894524180849 0.0286277769313888 0)
(0.863769696118559 0.0316357582859906 0)
(0.954593785030086 0.0358502321861776 -1.21318155281596e-16)
(1.045339530437 0.0414518994506531 -1.14825970932838e-16)
(1.1359698404102 0.0486245441726682 0)
(1.22644091262191 0.0575361745543596 4.40907313406572e-18)
(1.3167021796684 0.0683168985308598 -2.5176408327952e-18)
(1.40669427537493 0.0811006870309971 -6.67363882115246e-18)
(1.49635146003153 0.0960032298511416 -2.38846535914962e-18)
(1.58560825155412 0.113094260798559 2.43032407579422e-18)
(1.6744001560095 0.132408856109123 -2.47975665386635e-18)
(1.76265568732128 0.153990521613247 1.93607209552142e-19)
(1.85032163596461 0.177811641403464 1.93715401468473e-19)
(1.9373470826512 0.20382939579676 7.6598906227034e-18)
(2.02369369595932 0.23197780155443 0)
(2.10933587359463 0.262157363469604 3.88177359908691e-19)
(2.19431968202103 0.294123374425198 -1.39366692961423e-18)
(2.2787467549801 0.327508466117003 -4.5557298595508e-18)
(2.36275972228559 0.361916237314626 3.03418346302178e-18)
(2.4465776185885 0.396801120902139 0)
(2.53043370490916 0.431607567037422 1.94576786793749e-19)
(2.6145556536459 0.465791521761712 8.95181677309473e-18)
(2.69916302364475 0.498791080829319 1.77483489536943e-18)
(2.78444461712522 0.530053052148642 5.69487002457619e-18)
(2.87054519005528 0.559040583828453 -3.57915142166276e-18)
(2.95754972165505 0.585257812293714 -2.32274503973703e-18)
(3.0454561090256 0.60834609595872 0)
(3.13420353912699 0.628036444169944 -1.93909171156471e-19)
(3.22367365700339 0.64421599247463 -2.03992663748828e-18)
(3.31370745085799 0.65697902382988 -2.06322010372941e-18)
(3.40414569692794 0.666545323715126 -1.88768905039314e-18)
(3.49485271364548 0.673168935481303 0)
(3.58572200356849 0.6770409586235 6.6793603213462e-18)
(3.6766655388437 0.678341931135481 0)
(3.76761124564703 0.677244995926588 -6.65444615332018e-18)
(3.85850020532092 0.673901780991642 6.42319277637763e-18)
(3.94928418705011 0.668450576003794 0)
(4.03992459015998 0.66103215835076 0)
(4.13039041218417 0.651766327025713 2.20060951814645e-18)
(4.22065802070087 0.640779507340874 0)
(4.3107105921882 0.628188047000238 -1.91906910328495e-19)
(4.40053199618234 0.61407814523738 0)
(4.49011275465433 0.598547232402443 2.06015913055678e-18)
(4.5794527036281 0.581719373608555 0)
(4.66855349474075 0.563694840520283 -5.36099938736627e-18)
(4.75741860425814 0.544569901741154 -3.49012038041309e-18)
(4.8460628426175 0.524469230534769 0)
(4.9345109248675 0.50354566431377 3.51267512590645e-18)
(5.02278937976922 0.481934109865256 5.04805548063969e-18)
(5.11092239916426 0.459753948571813 -6.69371244872703e-18)
(5.19894504012964 0.437151679177048 -3.07475021251148e-18)
(5.28689263877942 0.414269287561893 -1.68979216790513e-18)
(5.37479214675905 0.391207375910023 2.92097463809915e-18)
(5.46266935959462 0.368066641031714 0)
(5.55056628268258 0.345003750663848 2.77797845506732e-18)
(5.63851013909873 0.322117306411181 0)
(5.72651868176001 0.299478278335663 0)
(5.81462505897 0.27722007399924 -2.58774101447786e-18)
(5.90285618691258 0.255452602633502 -2.91469951083635e-18)
(5.9912230537501 0.234233281628256 0)
(6.07974894403476 0.213679720977058 0)
(6.16845053976728 0.193881201629331 0)
(6.25733162992052 0.174891549699648 -2.33713868483617e-18)
(6.34640067074966 0.156787465466618 -2.29695460520045e-18)
(6.43566280930969 0.13964482464935 2.25984785747609e-18)
(6.52512193985501 0.123542595501847 2.41813764345787e-18)
(6.61477369684714 0.108528834481298 6.97007392033266e-18)
(6.70461204020669 0.0946539233698377 6.69468427093676e-18)
(6.79462831040444 0.0819608647690438 0)
(6.8848114601294 0.0704915572377301 -1.92377234410236e-19)
(6.97514947962479 0.0602880865260156 0)
(7.0656264806291 0.0513750667169947 -2.2783647306608e-18)
(7.15622429058202 0.0437567126594625 2.26505869168719e-18)
(7.24692397724234 0.0374421606354662 2.44696172935083e-18)
(7.33770734314261 0.0324393787457785 -2.24634809467966e-18)
(7.42855427326463 0.0287322890569301 2.24080919646802e-18)
(7.51944541665912 0.0263024784281219 -2.23769349101105e-18)
(7.61036229503903 0.0251256464660555 -2.23691118496111e-18)
(7.701292558805 0.0248523796138318 0)
(7.79222738328043 0.0248543705363195 -4.28138032991537e-18)
(7.88316206392547 0.0248521110898509 -4.47414438758992e-18)
(7.97409678956399 0.0248527750562362 1.92750338976801e-19)
(8.06503154535593 0.0248525945253473 -1.92750349594541e-19)
(8.15596630136611 0.0248515247314189 -4.28138295390642e-18)
(8.24690095639619 0.0248507065673162 0)
(8.33783567564007 0.0248501088627065 1.92750294907356e-19)
(8.42877042432138 0.024849014498354 8.56275544015832e-18)
(8.51970518157842 0.0248476536570946 2.23705923714447e-18)
(8.61063988204169 0.0248456323954697 0)
(8.70157456019077 0.0248443686422231 -2.23705624977685e-18)
(8.79250931888551 0.0248427256659365 1.92750264640051e-19)
(8.88344408605781 0.0248402386609054 0)
(8.97437882970998 0.0248378107633673 -1.92750268394642e-19)
(9.06531350934398 0.0248344262972334 0)
(9.15624821025405 0.0248306537682018 -4.08856164212187e-18)
(9.24718296715072 0.0248273389915933 0)
(9.33811769651866 0.0248235913914186 -2.2370206071692e-18)
(9.42905245723947 0.0248191423652121 0)
(9.51998716522321 0.0248143692585366 -1.92750192400341e-19)
(9.61092183234508 0.0248096231372353 2.04424825024196e-18)
(9.70185657486684 0.0248048440968475 2.2369892379692e-18)
(9.79279134147337 0.0248001413236183 0)
(9.88372610244211 0.0247944044212719 0)
(9.9746607794473 0.0247883512184302 2.04421580236104e-18)
(10.0655954880202 0.0247826217422733 -4.28115663350989e-18)
(10.1565302346018 0.0247765030404963 0)
(10.2474649999342 0.02476989637494 -1.9275011126702e-19)
(10.3383997030765 0.0247627986305338 -4.28109958106797e-18)
(10.4293343590659 0.0247567580048379 0)
(10.5202691160696 0.0247505093457593 0)
(10.6112038840056 0.0247432828261565 2.62239101960806e-18)
(10.7021386330332 0.0247361876728446 0)
(10.7930733164846 0.0247290604382802 -4.28099226363895e-18)
(10.8840080170441 0.0247219103745112 -1.92750112921479e-19)
(10.9749427593829 0.0247149228557462 0)
(11.0658775284135 0.0247069425337803 2.23683190911021e-18)
(11.1568122676691 0.0246996557405101 -1.92750170763439e-19)
(11.2477469805611 0.0246923340803512 -6.71043607327235e-18)
(11.3386816236318 0.0246842853832273 0)
(11.4296163507541 0.0246772394575747 -2.23678573258864e-18)
(11.5205511149309 0.024670074558095 4.28080050662321e-18)
(11.6114858589881 0.0246629662041765 0)
(11.7024205745204 0.0246559559623219 2.04400413378369e-18)
(11.7933552713623 0.0246499087060266 -2.23674431937991e-18)
(11.8842900095629 0.0246436663825175 -6.71020178792809e-18)
(11.9752247714086 0.0246363446808716 0)