/*--------------------------------*- C++ -*----------------------------------*\
| =========                 |                                                 |
| \\      /  F ield         | OpenFOAM: The Open Source CFD Toolbox           |
|  \\    /   O peration     | Version:  v2006                                 |
|   \\  /    A nd           | Website:  www.openfoam.com                      |
|    \\/     M anipulation  |                                                 |
\*---------------------------------------------------------------------------*/
FoamFile
{
    version     2.0;
    format      ascii;
    class       volTensorField;
    location    "0";
    object      grad(U);
}
// * * * * * * * * * * * * * * * * * * * * * * * * * * * * * * * * * * * * * //

dimensions      [0 0 -1 0 0 0 0];


internalField   nonuniform List<tensor> 
14000
(
(-0.016563079831453 0.000661412797741484 0 26.6214300553427 0.0164366333028228 7.39861386751961e-21 0 0 0)
(-0.0329513784433952 0.000131822565340308 0 26.2140310531671 0.0386619490708215 -7.41804667481214e-21 0 0 0)
(-0.0470811698930265 -3.58803277548721e-05 0 25.4394815402217 0.048853180186152 0 0 0 0)
(-0.0555083148336159 0.000392221297643489 0 24.4255895953632 0.0582316329101591 0 0 0 0)
(-0.0781557830109077 0.00144866769879246 -8.97054781106601e-22 23.2001668420404 0.0831717413797105 1.03023771022609e-18 0 0 0)
(-0.138214991452466 0.00246954219389748 -1.46691605317372e-18 21.9739859712614 0.143210800505684 -8.11301295935013e-21 0 0 0)
(-0.23600188522609 0.00221810694614505 2.39366251024247e-20 20.9461964209861 0.243647731627176 -2.37637288504994e-18 3.90155909188346e-18 4.53777379342669e-20 -4.42395423237616e-37)
(-0.373598277822866 -0.000708234650812611 1.468973026695e-18 20.1706079631821 0.384187342316392 -6.43282313681735e-20 0 0 0)
(-0.551479238144959 -0.00804545713522661 6.47719345953993e-18 19.6667091155873 0.564814742394952 1.33302792288383e-19 0 0 0)
(-0.772040716469793 -0.0221439503682433 -3.5672962729229e-19 19.4232077847839 0.789293387137036 8.30205974243881e-18 0 0 0)
(-1.04919365686651 -0.0468065130911078 -1.9873470379408e-17 19.4891494993418 1.06762489979898 -2.78915763049195e-19 0 0 0)
(-1.38143483758513 -0.0856277844442778 1.36400530751802e-17 19.7998103119149 1.40392028747732 -1.90957030803158e-16 0 0 0)
(-1.79947633544521 -0.146391734839932 1.33996774782258e-17 20.4115546616061 1.82037135256513 3.36842503356027e-19 -1.50213455918205e-20 -1.55105074045719e-21 2.65748408560301e-40)
(-2.30652294016435 -0.235986438471593 -2.63668633945544e-17 21.3097260464065 2.32753005068273 -6.97561631285761e-19 3.1247249087244e-20 3.56051349660904e-21 -5.46562514603545e-37)
(-2.91987511084632 -0.36415225090866 7.69213245532789e-17 22.4386991092344 2.9375228558999 -3.83417369670439e-16 -1.62706769747373e-20 -2.01779669957961e-21 5.52363201927322e-37)
(-3.66365829548211 -0.544470085794149 4.58236607791157e-17 23.8319076574811 3.67475059550886 3.39300577904126e-17 -7.18664852629339e-17 -1.10803495208585e-17 -9.93078199270133e-35)
(-4.56458511592131 -0.793733970545352 -8.96970044568933e-18 25.5212518945617 4.56506768909675 3.30840543066794e-17 -7.73221220939795e-17 -1.3829789693263e-17 -1.01419879704987e-34)
(-5.63700619955051 -1.12721906153668 -1.43459500500966e-16 27.499271066226 5.62159904445581 6.74111502786915e-16 0 0 0)
(-6.88129917132153 -1.55991547071903 -6.23867274566396e-17 29.6823704680278 6.84887869729742 3.34026123840106e-16 0 0 0)
(-8.39441839749351 -2.1345896165398 -2.22053337426085e-16 32.2947015543029 8.32732187204857 6.1889523760737e-16 -1.40598962289798e-20 -3.76084686514914e-21 -4.84760734986964e-38)
(-10.1018000195992 -2.84240594179744 1.21295185515193e-16 35.1664691752678 10.0075127678111 -5.57517976953292e-16 1.44621003560632e-20 3.86843145225113e-21 4.98628032802283e-38)
(-12.1553661846221 -3.75385169816911 1.25280207717457e-17 38.5241889875329 12.0052687714818 8.217432620626e-20 8.73004078820432e-21 2.76072176914816e-21 -1.42655873835954e-37)
(-14.480528232307 -4.85253866417525 1.18324803043126e-16 42.3125796769176 14.2828091387005 -3.89501551572562e-16 -9.04033435213059e-21 -2.85884664823409e-21 1.47726319734372e-37)
(-17.3568369778395 -6.26547479164462 1.29006387130615e-16 47.0165431038233 17.0617869863993 -2.78278640901438e-16 -2.78275736677131e-21 -9.99438694097341e-22 2.6155227000277e-38)
(-20.4866687056596 -7.82878804266517 1.94247742970786e-17 52.4317576145494 20.1097208459972 -4.85251277199797e-20 2.89722318205229e-21 1.04054955999937e-21 -2.72310949211369e-38)
(-23.9598469857765 -9.57325957407271 2.43229280558447e-18 58.6047332528516 23.4671167053648 -6.20121067704474e-18 0 0 0)
(-27.6021493399504 -11.3270755577555 -2.85900639930147e-17 65.7327673174661 26.9937817492468 6.48227596661434e-19 0 0 0)
(-31.0948850392036 -12.8589896537811 2.50899200067359e-16 73.5058095343919 30.381818757451 -4.94091052570039e-16 0 0 0)
(-34.2134830318555 -14.0010864609227 7.33527202802862e-17 81.7832962334885 33.4118264877492 1.35036307072283e-17 5.28830820522553e-16 2.16040830908159e-16 1.06541589546046e-34)
(-36.7497276176122 -14.6060194296334 -5.00101467145026e-16 90.53358531869 35.8789023314725 1.12348310506864e-15 5.82770828824291e-16 2.30940463057234e-16 7.22277162994598e-33)
(-38.327767521275 -14.4969780349128 -1.41502129918902e-16 99.3588949036418 37.426048919994 7.27025850302933e-18 9.27047588220671e-20 3.17531224449639e-20 -2.76532135705515e-36)
(-38.6829727253979 -13.6374380179119 3.12771384717769e-19 107.785745939788 37.7864371246257 9.54226128239652e-18 -6.82885597368617e-16 -2.39367925969731e-16 -5.47482735184861e-35)
(-37.485133312715 -12.0241397633641 -6.71784403660475e-16 115.08595515775 36.6426011085745 2.32941224034557e-15 0 0 0)
(-34.5754614159403 -9.83711922291805 0 120.114736795918 33.8408420820904 0 0 0 0)
(-30.4116791789812 -7.48031100436631 0 122.7132697142 29.7896129038405 0 0 0 0)
(-25.094963264643 -5.15876139089235 3.41845497721928e-20 121.984843508263 24.6227380509793 -2.7004403482682e-21 0 0 0)
(-19.4985961752125 -3.24449777887119 -1.5133948586731e-19 118.149614341716 19.1528605644973 9.29929404515063e-19 8.89985382245129e-20 1.22655780252624e-20 1.37646556905518e-39)
(-14.2161157552557 -1.84141067259239 -7.21569886747554e-20 112.35751072708 13.9812085603616 3.05126069943423e-20 -7.57693012192868e-21 -3.85884336333687e-21 -2.74767057186993e-39)
(-9.73242787908327 -0.939572732161801 8.79951006749604e-20 106.064410330946 9.56618202906423 -9.83660702382591e-19 -8.3125898436926e-20 -8.61769330629037e-21 1.3672040270274e-39)
(-5.97138252702234 -0.402919380814207 6.87719182696724e-20 100.024142000452 5.85329479334078 -5.54922189479647e-21 0 0 0)
(-2.79976689402915 -0.127432248062608 -2.52315786515341e-20 93.8565633225941 2.71513638538019 8.69208577346423e-19 3.50391171350696e-17 1.0112770608245e-18 3.25280356096645e-37)
(-0.187138049556143 -0.0406430518467393 8.75169840801417e-18 87.6859021026221 0.120732791453135 -9.57563536859569e-18 1.01548517252133e-18 -3.00744981275022e-22 2.56333704682811e-37)
(1.94063041831052 -0.0827601577526017 2.37933853155135e-17 81.6170877131466 -1.9959957504481 2.52229996049869e-16 -5.99902996450935e-20 7.51894808729615e-22 -3.60134963612484e-37)
(3.63114590045836 -0.20789952899848 -1.81313946314392e-17 75.5830684217472 -3.68470010104312 4.99760852913248e-16 5.63752220331234e-17 -2.74999943917204e-18 3.70457996758548e-34)
(4.92431105291616 -0.379959696135586 -1.2091764378633e-16 69.4441935544636 -4.97879377276813 -9.62321986795515e-16 -1.03737221109519e-16 7.44028001557487e-18 1.44304168968681e-33)
(5.84891085371392 -0.568303187995245 7.64435320479411e-17 63.471948288761 -5.91339328974881 1.08711332497758e-16 4.05526864990341e-20 -4.3276860956256e-21 -4.00365155986437e-38)
(6.45174378976806 -0.753551701371426 7.22167690214118e-17 57.3773837493779 -6.52171423560874 8.94480191326174e-16 -7.58184581202423e-20 8.85241124676856e-21 1.23689324089727e-36)
(6.74114553280811 -0.911832352330345 -4.81472454929562e-18 51.4525755209152 -6.8278998961576 2.1923609083105e-16 -1.5463451410907e-16 2.05239343298561e-17 -6.53954485606623e-34)
(6.79239814977625 -1.03971814903583 6.25140357994389e-17 45.6494421128101 -6.88783952372011 -4.90407191514372e-18 0 0 0)
(6.58460063656992 -1.12005695982964 -5.71407594317521e-17 39.8183795675958 -6.69740340926208 4.40535515179521e-18 0 0 0)
(6.14860221624389 -1.14571309282619 -1.93310775449467e-17 33.9662715489067 -6.27274534730036 2.05687195896528e-16 -1.02929801412075e-16 1.90109570090241e-17 -6.09020760178244e-34)
(5.57046290794455 -1.12154776345183 -2.10929069305396e-16 28.5753949802581 -5.71202776478132 -1.34444474484463e-15 -8.67759863779639e-17 1.73466975167939e-17 4.06887091636498e-33)
(4.86664809270377 -1.0497498428782 4.6108117234375e-16 23.3846368341658 -5.01351749855851 1.43690020863475e-15 -1.34682780038905e-20 3.15527816385464e-21 1.9054214139999e-36)
(4.05987271210464 -0.931402675163801 2.66642135330999e-16 18.4997354051341 -4.22241601723966 9.57891738713594e-16 5.64941245170583e-17 -1.28951772333724e-17 2.93523182961656e-33)
(3.21583107728266 -0.779367889000168 -4.86107677164219e-16 14.0075494905339 -3.3800650596883 -1.45104994885584e-15 4.28851140843263e-17 -1.03498851453268e-17 -4.4689946387813e-33)
(2.43040452374499 -0.619842218943013 -1.39978316516131e-18 10.2447226594381 -2.60319601620812 1.95489080617967e-16 -3.14293960268805e-17 7.98849838358696e-18 -5.88264493146638e-34)
(1.71274655203009 -0.458466527771716 -1.1492727205541e-16 7.04608894050543 -1.87913962284841 6.78231317620564e-18 1.98285363646893e-21 -1.45708345740302e-21 -2.81797994234373e-36)
(1.06103264127364 -0.303047620613507 -3.25921376034137e-16 4.32756293189579 -1.22914998411939 -1.24044887927522e-15 -2.66182968944201e-17 7.56209069724135e-18 7.64937708303405e-33)
(0.520586403788241 -0.166475600747398 -2.69748184510762e-16 2.15505689878015 -0.679713925436862 -1.90067475756871e-15 -5.12500797452284e-21 3.95651002700083e-22 -9.41701086130229e-36)
(0.107571486364043 -0.0596587539778385 -1.03469108575829e-16 0.54212678470213 -0.262310713130871 -3.9896195393534e-16 0 0 0)
(-0.222647830788525 0.0297975078450272 3.61218789956294e-16 -0.714282950179408 0.0788368404335555 1.61111771187334e-15 4.41979618536191e-18 -4.89806813791518e-19 -9.91550528370524e-33)
(-0.499051949880359 0.103326923160788 -4.49655993841305e-16 -1.77411412830429 0.361914896217972 -1.4722746646835e-15 -1.13642062134927e-20 2.238472977126e-21 -3.00815093098097e-36)
(-0.649876729755849 0.142476113633145 8.6773517135599e-17 -2.38859438602218 0.521362057282478 3.34383569736867e-16 1.47376376418583e-17 -3.21699463455263e-18 -2.06145243516317e-33)
(-0.744474399088315 0.167739540602842 5.45067063073491e-17 -2.78171724091009 0.626099812801914 -3.74438186683282e-18 2.32152427696086e-20 -4.69923659059263e-21 2.8935849136812e-36)
(-0.813268997341329 0.184100952348448 2.4422634878591e-20 -3.09874287947197 0.702977565892467 -1.37880290688013e-19 -1.15435943905349e-20 2.34877521874285e-21 -1.32513664034628e-39)
(-0.816319084874643 0.180999766918461 -5.08531366312343e-16 -3.2059567390769 0.714137804209935 -1.92715965486888e-15 -1.97059832605039e-17 4.38951397865659e-18 -1.18582344455462e-32)
(-0.768916653788363 0.165864890680206 2.44762428644825e-17 -3.10821389859608 0.674624535504183 1.01429422572743e-16 9.52099775250417e-18 -2.06673078173064e-18 -3.1322196419934e-34)
(-0.72289697545714 0.151340999866576 -8.83577882010249e-17 -3.02009976365683 0.638042603567653 -3.81972410118557e-16 -9.24623606397972e-18 1.95331834885609e-18 -1.16926545212759e-33)
(-0.622240527575428 0.122082534459439 -3.17449839280365e-17 -2.72736932328552 0.542328698966856 -2.62790515879516e-16 8.34154489812879e-18 -1.65837566336977e-18 7.98346914586935e-34)
(-0.512212804004912 0.0944753251215376 -2.48069264491387e-17 -2.35722693407259 0.442703607674583 -1.29969336127531e-16 -7.17662897684104e-18 1.34778275812202e-18 -3.97541381526203e-34)
(-0.393280845837853 0.0652647223765358 -7.07565980256975e-17 -1.92586881637992 0.329009095555148 -1.96212705466665e-16 -1.74751963772483e-20 2.99910550161456e-21 1.47369443909103e-36)
(-0.263939735076357 0.0369442862148615 -3.0720329873308e-17 -1.40458796015345 0.208118239399998 -2.16576812981067e-16 -4.26626670672608e-18 6.31726204725185e-19 -6.5597829144744e-34)
(-0.131514482523971 0.0102096511378157 -1.10708031530904e-19 -0.816152849783018 0.0821850056024415 -4.44909589507205e-19 -1.14601311642142e-20 1.53501756367531e-21 -1.71222050755104e-41)
(0.00774444811718977 -0.0143149020697604 6.37481621931534e-18 -0.110061295840623 -0.0499005816959723 -8.23052979192774e-20 1.12879831736195e-20 -1.51195934686018e-21 1.68650044243081e-41)
(0.137663121420775 -0.033664171318585 1.06200403093305e-17 0.65014446351466 -0.172345645253858 9.40474001937171e-17 -5.9362924583922e-21 5.29061942013794e-22 1.30908852609694e-37)
(0.263014323290684 -0.0490767108874006 -2.03281875192243e-17 1.51339799752825 -0.29179625753632 -7.02366858254045e-17 5.8611832521769e-21 -5.22367962095873e-22 -1.29252522488665e-37)
(0.37412107459973 -0.0587779561923597 -9.23060934779541e-18 2.44736000977199 -0.395368352544627 -1.0287857674975e-16 6.85965818626382e-22 -3.42873571083898e-22 -2.81842649121772e-37)
(0.470167425766242 -0.0635935229117597 3.33105801045834e-18 3.48110750442231 -0.486035870718479 -1.9599122565809e-19 3.79087492751972e-21 -3.58303132254735e-22 2.78535620982179e-37)
(0.545923597207553 -0.0631382631294893 2.81506775255723e-19 4.60622508154364 -0.554666519975502 -8.9720597293841e-20 -4.42990370028772e-21 6.91444904988052e-22 4.279065066717e-40)
(0.598060161166363 -0.058374081640637 1.17481520435149e-20 5.84902081885947 -0.602417885993986 2.75078699813069e-21 -8.74447443714734e-18 9.00533419647484e-19 1.93294734682932e-38)
(0.620992659447224 -0.0497114276967799 -1.56682789257991e-18 7.16521121146451 -0.619057210255524 1.76186844881528e-19 -3.10325185525221e-20 2.45987188752154e-21 8.03545983550332e-38)
(0.611134612361594 -0.0383660494268129 -1.992535650534e-18 8.60168731503298 -0.60674688414256 -1.82501719821385e-17 1.78934817467984e-20 -1.27717059851923e-21 -1.03640827598466e-37)
(0.566946086256637 -0.0256291617145201 1.69231004520169e-18 10.1436468165417 -0.557707690043688 -1.17695622907171e-17 -2.90613699117112e-20 1.14695348182479e-21 -1.24281154104265e-38)
(0.484480621039702 -0.0130756272948712 9.83164681809413e-19 11.8381361382862 -0.475378653342004 -1.08262560786211e-17 -8.83432834212819e-18 3.5399880752738e-19 7.91029715804533e-36)
(0.364446287375426 -0.00218997198189782 -1.09910521315797e-18 13.6283818070435 -0.350747102277112 8.46328612743126e-19 3.5275914837667e-20 -8.85331465996549e-22 1.20798957522762e-37)
(0.199747007401373 0.00333629026943803 -5.38378667648552e-19 15.7655603725102 -0.19407564444831 -1.76315537226012e-19 1.46871539209722e-18 -1.8053208156143e-20 -1.89447276525848e-38)
(0.0813947573211472 0.00184106905066745 1.57599338277358e-19 17.9947444782413 -0.0762907724990397 -1.78957878059945e-19 5.73910167436458e-20 1.60452849160208e-23 6.09629003962749e-40)
(0.0543024592738463 -7.8257028739059e-05 1.00253781693427e-20 19.5924236867364 -0.0446547459069296 2.06545925302994e-19 -1.47543865505341e-19 3.89293166274602e-23 -2.32404590743152e-39)
(0.0398588216410481 -0.000153744223363954 -2.54205489999559e-20 20.7513472908562 -0.0376752603984675 1.74781502678696e-21 -3.23038585111487e-21 1.23967486822378e-23 2.04041663852355e-39)
(0.0350883669370863 -4.47505761931768e-05 6.85568860554868e-21 21.7483319936682 -0.0309716672004398 -1.06929159048965e-19 6.48709568514531e-20 -2.38578258538457e-24 -6.27235104580294e-40)
(0.0290274259870719 -3.69389617740444e-05 9.81723418565156e-22 22.5942520830289 -0.0262161182803207 1.67156070744826e-19 -7.00102222456866e-20 8.93279539488191e-24 -1.8760585483989e-42)
(0.0250300991178789 -1.5352539754074e-05 -3.58955084680648e-21 23.3130821172909 -0.022566183426784 -2.36660248331072e-19 7.0010137727349e-20 -8.93278461095647e-24 1.8760562835675e-42)
(0.0207037730220567 -4.9650613374978e-06 3.65894605674965e-21 23.936191592309 -0.0189316873603083 4.56506787766526e-20 -3.68235926431714e-20 5.26449718625577e-24 -3.95721999028035e-42)
(0.0180389539048964 -4.76989121317972e-06 -2.91872040342901e-21 24.4708137068488 -0.0162495442583347 2.55241717277953e-20 3.68234718038369e-20 -5.26447991042008e-24 3.95720700437117e-42)
(0.0150239929936206 -1.41675779293388e-06 5.58605670920858e-22 24.9314939250951 -0.0137580276692705 -5.54837559567705e-20 0 0 0)
(0.0131688898403314 2.81092888238215e-07 1.62633487241265e-22 25.3278018931517 -0.011915147200707 2.7715652418557e-20 3.86295723417786e-20 -5.47432924557638e-24 -8.42680941196754e-41)
(0.0112172957129878 1.21245007684207e-05 2.41379026004418e-21 25.6676554582184 -0.010172442499296 2.1881628927719e-21 4.29085531964748e-22 4.94939717761708e-25 9.68709075252517e-41)
(0.00930796569804709 4.98674413118228e-06 -2.06759494042135e-23 25.9642689924193 -0.00847542154058127 2.14736653633326e-21 3.65456404206367e-22 2.02772714185028e-25 -8.30462257947118e-43)
(0.00836030005057897 3.80979587230139e-07 3.09602498684884e-21 26.2181004512732 -0.00748423756405797 2.26588205027223e-20 3.05051508692534e-22 2.39751544151039e-26 1.24226045498301e-40)
(0.00720001927716851 6.38276166035049e-06 -1.80560853207485e-21 26.4358355608344 -0.00650260443003183 4.68981431389122e-20 -7.97185586177965e-20 9.24212502864003e-24 -1.99481764446554e-40)
(0.00623828190654837 -4.63027170489239e-07 -3.24910926421448e-21 26.6265082799014 -0.00563983525783744 -6.05132321318959e-20 3.99895762191369e-20 -4.48950620082664e-24 6.34836192244582e-41)
(0.00589343567552119 3.06629876148816e-06 2.01098254988149e-21 26.7883424136811 -0.00521536587269722 5.50075838926744e-21 0 0 0)
(0.00499626035640426 1.02401478606093e-05 7.78319462911657e-25 26.9294106459255 -0.00451705202440375 2.14526722826459e-20 0 0 0)
(0.00446306172999933 3.20267411778416e-06 -3.45118562453639e-22 27.0536012115758 -0.00394670958516502 1.17706541759698e-23 0 0 0)
(0.00410760922583782 -1.56473963883097e-06 -2.77733748892108e-22 27.1603286525581 -0.00363944610559916 -3.44233525877077e-21 0 0 0)
(0.00388466655928615 1.28479176527907e-06 -5.17927214224865e-22 27.252061154675 -0.00344762551861348 -6.83540448042889e-22 1.98274497640412e-20 -2.50832790884936e-24 -5.08953986091971e-43)
(0.00358284207126264 4.40458341625361e-06 2.77343973267244e-22 27.3321787107957 -0.00317204300412687 -4.31514568877175e-21 1.98857676171538e-20 -2.30775677444711e-24 -3.13294601899785e-42)
(0.00328054832062837 4.4384922283989e-06 5.17887645372745e-22 27.4031843497892 -0.00291444157129662 -1.57534107501069e-23 0 0 0)
(0.00310341102508747 3.3745401916492e-06 -2.12404123589731e-22 27.4644399893208 -0.00269226119245419 -1.01608303063257e-20 0 0 0)
(0.00273643544562183 -6.32496131059939e-06 3.96980592474384e-22 27.5205205983176 -0.00249598728955445 7.16869601491433e-21 0 0 0)
(0.00321291251983748 -1.71388618820248e-06 -1.61537296354792e-22 27.5651653576507 -0.00274512417947942 9.93251200598156e-22 -4.01104595953862e-20 3.99454131938679e-24 -1.43880757487382e-42)
(0.00265697833947944 4.43301159679283e-06 -7.47106969295206e-22 27.6068718961142 -0.00248035875187331 3.16472782263428e-21 0 0 0)
(0.00284427273070703 -6.41312725749883e-07 4.29725602827307e-23 27.644083291553 -0.00246341573996843 -1.3748716829852e-21 0 0 0)
(0.00261122441082158 -4.25146623327495e-06 9.54950245798136e-22 27.6767409440723 -0.00238558788833043 -1.26084689281825e-20 0 0 0)
(0.00283436414728957 -3.03864241542115e-06 -2.73414825489742e-22 27.7048645186275 -0.00255002598665008 1.55886247888518e-20 -4.13585650185177e-20 3.72653045454902e-24 -1.94606962801631e-45)
(0.00281609358723217 9.82297627773693e-06 -8.75930482443565e-22 27.7281511804874 -0.00250985330830674 -1.21428867744805e-20 8.17060707225545e-20 -7.37831892679285e-24 -1.76961156038705e-41)
(0.00223584695406562 5.53994802058113e-07 1.03886567061896e-22 27.754428443857 -0.00211913934164299 2.47414256708477e-21 2.07053005041485e-20 -1.64868110653596e-24 -1.5473923207196e-41)
(0.0027107061337175 -8.52297163447184e-06 5.36964109690812e-22 27.7748722004492 -0.00236091685331995 -1.62633570318685e-20 2.07219192735964e-20 -1.98287480338466e-24 6.12839374306563e-42)
(0.00258070994577254 -4.58819180596018e-07 5.15273857723273e-22 27.7916681164375 -0.00242951419699655 9.7165389914937e-21 -2.07057016697349e-20 1.81040767077515e-24 1.49962352532322e-41)
(0.00263964144114564 5.10244061803771e-07 -4.77279505898375e-22 27.8081257115337 -0.00240938790749716 1.95101667387522e-22 8.53019197768541e-24 1.40879020758729e-26 -9.57681704338583e-42)
(0.00257446470440816 8.26613847012688e-07 6.08554127521794e-22 27.8236883916725 -0.00240084765056247 -2.95819636745994e-21 7.15702781069651e-24 2.04254653482552e-26 1.22151353472017e-41)
(0.00262178648022792 5.35954671112496e-07 6.86433060954299e-25 27.8364925497275 -0.00237279848011322 1.12162931520706e-20 -6.22252190070817e-20 5.33058722546985e-24 -2.48587683873094e-41)
(0.00236497794568567 -7.85909903592891e-06 -6.22362502864066e-22 27.8515835682086 -0.00232981929701993 -5.2471267016106e-21 9.61302902320314e-22 -1.53671984249568e-25 2.42197482904037e-41)
(0.00311707320673153 4.40300252024958e-06 5.61547678882336e-22 27.8583999768537 -0.00270290415100881 2.15639171783835e-21 4.05370921365508e-20 -3.93293311022413e-24 3.15022454657842e-42)
(0.00205200304978435 5.90414623185342e-07 -1.58793684031614e-22 27.8726073784816 -0.00219275116541231 4.90072887408542e-21 -4.05577928974732e-20 3.19067223165083e-24 -7.12768378071781e-42)
(0.00305731441631589 -5.48748963853392e-06 -1.93627830714695e-22 27.8811592021558 -0.00263209216957073 -4.22704815110689e-21 2.07651317201785e-20 -1.92234921358193e-24 -2.50609053351149e-46)
(0.00241711787203461 6.96350339741364e-06 1.51799094980776e-23 27.8891559018131 -0.00243166113790539 -1.30327024418814e-21 -6.13469063380395e-20 5.46054909810308e-24 1.89645558595651e-42)
(0.00256564776940704 1.51193005132421e-06 -1.54167965680402e-22 27.8994535577124 -0.00236950068879574 -1.90484547932987e-21 0 0 0)
(0.00247351540822881 -5.35174280776506e-08 1.49124048050255e-22 27.9078570228294 -0.00233462325668748 3.25050105072476e-21 2.07816917939225e-20 -1.74203156334811e-24 2.03036493603673e-43)
(0.00244943251475697 1.30435082131527e-06 1.62124851640449e-22 27.9162057576151 -0.00234944743701688 1.51254181445754e-21 1.98396471071675e-20 -1.6766689508509e-24 2.00011768056275e-42)
(0.00250404584495709 8.64923059294429e-06 -5.90238271018558e-23 27.9230593426947 -0.0023081314770619 1.03628193364266e-21 -5.10277574045797e-20 4.12598027109796e-24 -2.64080160386531e-42)
(0.00199729191118923 -5.1127848615213e-07 -1.67140515146868e-22 27.9344927607205 -0.00200357634934278 -1.36437232865202e-21 1.03964836876681e-20 -7.67489550240211e-25 1.13378099447467e-42)
(0.00250116374102795 -1.13354527156878e-05 9.20705406814447e-23 27.9424257488339 -0.00227319657844468 -6.43807289995051e-25 0 0 0)
(0.00257462853346178 9.4794099321152e-06 -2.65878452927002e-24 27.9488452878612 -0.00253078165150134 5.36683605814754e-22 -1.04052025834412e-20 7.86120673655169e-25 -3.5437192533806e-43)
(0.00222286204584371 -1.49317450122656e-06 -1.10586051297497e-22 27.9578930370853 -0.00203602007740839 -6.41101145441179e-22 1.04051716608413e-20 -7.86118337430107e-25 3.54370872201308e-43)
(0.00242086285382096 8.10155688512043e-06 -9.04943296284056e-21 27.9762818194673 -0.00265971078034169 -1.18131906270173e-16 5.20726415218106e-21 -3.58318848285471e-25 -4.72806189026458e-43)
(0.00279076983048453 -2.47425669206146e-05 -5.24613657464354e-21 27.9743669904348 -0.00184549663938381 -8.9820823513875e-17 -1.04202106474419e-20 8.40190766824266e-25 8.23116443222897e-43)
(0.00254890700537481 4.7794044249763e-05 2.71423746301701e-23 28.0208083489683 -0.00421137806329619 -6.78865175833613e-22 5.21295575038324e-21 -4.81872054740512e-25 -3.50311594582942e-43)
(0.00151849006223196 -0.000305891010124354 -5.42482454775694e-23 28.0017630827942 0.000999512813277493 3.81707497465317e-24 -1.90687833836401e-20 -1.17084448314312e-24 -1.24275235487267e-43)
(0.016032847836826 -0.000412382300319026 -1.0791282308385e-22 28.0371920611265 -0.0192378021013735 -2.02832920888455e-22 -1.3040478464405e-21 4.43781860396912e-25 1.21503335521794e-43)
(-0.0242897809585791 0.00339948589738928 -1.44359493225704e-24 22.8367033250059 0.0192945273103936 3.38960570726725e-22 -3.47599486356046e-21 -4.06685407653178e-24 1.72699346675298e-45)
(-0.0532478458118314 0.00226981000301913 -5.49587701361511e-22 22.7806705682672 0.0543555494036903 -3.40866526537714e-22 3.47599535113344e-21 4.06685464698376e-24 -1.72699370899596e-45)
(-0.0834851323517409 0.00149119793630885 5.51031237156094e-22 22.6316709606943 0.0814973232749044 1.01564923372814e-24 0 0 0)
(-0.108190058587479 0.00213744743773614 7.65269385821338e-20 22.3295001928025 0.106359972029116 2.82105970492982e-22 0 0 0)
(-0.140712466989398 0.00459393599258893 4.77854292611832e-22 21.8833869594681 0.139270899909036 -5.54393220605373e-19 -5.12460401035372e-19 -2.54488068842983e-21 -4.9892252246624e-39)
(-0.201859353161637 0.00792683732977385 1.2848942307711e-18 21.3243056736371 0.19644236236385 -3.42491500734308e-20 0 0 0)
(-0.294025244756512 0.0103910471810472 -2.01590702985148e-19 20.7179560727112 0.28603623430497 2.0605087365656e-17 -3.74498122477415e-18 -4.3640792550198e-20 4.09133585255049e-37)
(-0.421788745672915 0.0104027959072463 -9.47264527172995e-19 20.1466002980029 0.410863178063608 -2.37449383383916e-17 2.22883339301626e-20 3.43471152004492e-22 1.29956311568508e-38)
(-0.58633157643611 0.00638927837141447 -6.17312727877758e-18 19.6614349446106 0.571620025455181 -4.75077868552982e-20 -2.11483473527517e-20 -7.23389475973208e-22 5.93215939101979e-38)
(-0.786934715402958 -0.00337866410597229 1.58896620480211e-18 19.2900165318118 0.769179115893873 -3.9825028138052e-17 2.82235763508845e-17 1.13557057663936e-18 -2.38495192978121e-35)
(-1.03032354628222 -0.02189522013096 -1.00240592356693e-15 19.0526658260756 1.0077753137607 1.86457660983676e-14 2.11012520654706e-20 1.30624729656534e-21 1.22023370954215e-40)
(-1.31093819506469 -0.051436478001303 -1.3584685658136e-15 18.9569471540437 1.28823107242472 1.9283967182889e-14 -6.41863157731853e-20 -4.70661489752729e-21 -4.91192747428821e-40)
(-1.64720198083396 -0.0972592342546595 9.83708644106247e-18 19.0117684671774 1.62053262696587 -1.10454573454191e-16 -1.05666815857056e-21 -9.31201345567879e-22 3.67135007540778e-40)
(-2.03506005106862 -0.163975777381832 -5.15977219397541e-20 19.2217379570076 2.00995263605793 4.6756502928938e-19 -1.49546850415322e-21 -1.11487728866491e-21 3.60101186635686e-42)
(-2.48792766012643 -0.257904143441527 -7.30185350976809e-17 19.5927063296058 2.46475878270284 3.65821060684669e-16 -1.89965118149706e-21 -1.3295410328077e-21 4.90347089317496e-37)
(-3.01445900598414 -0.3869404105594 3.51133588087841e-17 20.1198617092351 2.99601041541395 -3.76279323802739e-16 6.86359715666736e-17 1.05819294978227e-17 9.52706974483339e-35)
(-3.62606636652801 -0.56130898383787 7.57790663569567e-17 20.8135619330065 3.61693445939541 -1.53693547890848e-16 7.37540099174549e-17 1.31917751535496e-17 9.57303089860427e-35)
(-4.33326556263545 -0.791244818700402 1.3296616001974e-16 21.6906039709742 4.3384678346307 -5.27462153473167e-16 -1.45877065014147e-16 -2.95262340911372e-17 -3.51430855309178e-34)
(-5.14403709586391 -1.0859467549726 9.73039917699733e-17 22.7533678651388 5.17076090452217 -5.14636343411584e-16 0 0 0)
(-6.09238054606218 -1.46864136552345 1.54942971693021e-16 24.0166986212522 6.14189083914415 -5.91051625598107e-16 0 0 0)
(-7.15953623676208 -1.93937029751852 -1.53812168594041e-16 25.5176863772438 7.25353641810296 5.31585190134956e-16 -3.82481571370717e-20 -1.15242788275299e-20 -6.38145005621548e-43)
(-8.41438748862452 -2.53491765815713 9.46893988901104e-22 27.2818528980721 8.54652887682067 -1.5733715895242e-20 3.94817858192346e-20 1.18959746677226e-20 6.58727277846914e-43)
(-9.82079108915826 -3.248401609299 -2.09808944634921e-16 29.352714848247 10.0249172573247 6.10802403517559e-16 0 0 0)
(-11.4801584227286 -4.13970382370587 -3.55169332734255e-17 31.8121558929928 11.7549336248688 9.47252378311938e-17 1.29749529678421e-20 4.92966301936017e-21 -4.77749906694123e-43)
(-13.2965892568994 -5.14212793901808 2.84280652139405e-17 34.7991573483619 13.6936984942174 -7.920414840558e-17 1.55294007376885e-20 6.4793497747885e-21 -1.5357571532481e-38)
(-15.3491177067278 -6.27021546247832 2.76742587171655e-18 38.3715075698709 15.8491206394512 -6.46377964500697e-18 -6.07661900793045e-16 -2.46450625295198e-16 7.9786791814333e-35)
(-17.514634277836 -7.42930419523886 2.55986159352907e-18 42.5983724975767 18.153453636191 -1.72100834569209e-20 1.46186543549234e-19 6.16214043180999e-20 1.92578616906002e-42)
(-19.7263204971592 -8.50719553051467 -2.40826893638801e-16 47.5675417705798 20.4922090836165 4.71358271451212e-16 -1.52455804694323e-19 -6.42640598349339e-20 -2.00837418373164e-42)
(-21.8590126202389 -9.39117498813133 3.29264790107051e-16 53.2294380302607 22.7280953435963 -7.84386503027442e-16 -5.04331910032468e-16 -2.06032403310477e-16 -1.01605884658081e-34)
(-23.7488823359918 -9.96700333397925 8.04680506253194e-16 59.5196318711515 24.7013846061924 -1.88255997192912e-15 3.830777039257e-16 1.58953911397812e-16 -1.21034220559451e-32)
(-25.1951972550746 -10.1134878816246 8.90424424711452e-17 66.3443532306112 26.1979817437173 -4.75703102895537e-18 0 0 0)
(-26.010755862861 -9.77547552367948 -5.71373028098301e-16 73.4827184169306 27.0102436191179 1.88048166660983e-15 6.51208747028208e-16 2.282651545182e-16 5.49401592408918e-35)
(-25.9497237576529 -8.91890252081094 1.01095999796297e-15 80.5769406348173 26.8983251160585 -3.40682622296668e-15 1.19332874803328e-15 3.87602851935014e-16 -7.42744513548737e-33)
(-24.8561465381827 -7.61621546519566 -1.0656041023094e-16 87.0682997264873 25.694390094017 7.03025563464705e-18 0 0 0)
(-22.7903177911408 -6.08163237871941 2.99064105124745e-19 92.377540925776 23.4740884403627 -1.22116917725844e-18 0 0 0)