/*--------------------------------*- C++ -*----------------------------------*\
| =========                 |                                                 |
| \\      /  F ield         | OpenFOAM: The Open Source CFD Toolbox           |
|  \\    /   O peration     | Version:  v2006                                 |
|   \\  /    A nd           | Website:  www.openfoam.com                      |
|    \\/     M anipulation  |                                                 |
\*---------------------------------------------------------------------------*/
FoamFile
{
    version     2.0;
    format      ascii;
    class       volScalarField;
    location    "0";
    object      p;
}
// * * * * * * * * * * * * * * * * * * * * * * * * * * * * * * * * * * * * * //

dimensions      [0 2 -2 0 0 0 0];


internalField   nonuniform List<scalar> 
14000
(
0.105929986099559
0.105771739309781
0.106633647653659
0.108275348812225
0.110728997380944
0.114079417335243
0.117843374445785
0.121747596399217
0.125605866313858
0.129219880385799
0.132492133440881
0.135114031991933
0.137199862893141
0.138321864490066
0.138488162957375
0.13754782809915
0.135232247204555
0.131279556528774
0.125459443468945
0.117761899055958
0.10699734667853
0.0938777971103312
0.0764318690242109
0.0552663431889069
0.0267952124248854
-0.00707396215494585
-0.0491777601207063
-0.0993309908114527
-0.156549311273379
-0.220567191064475
-0.290557548184704
-0.363700201201029
-0.437720193350281
-0.508028384211757
-0.569288987451881
-0.621657230611581
-0.657900576555846
-0.681592342426521
-0.693181046866883
-0.697880795856616
-0.696189157118148
-0.688076769990864
-0.67538123823823
-0.658448236560945
-0.638112175150118
-0.614297986611104
-0.588882420985658
-0.56045596336445
-0.531576537116819
-0.501073906238521
-0.470076166700258
-0.438085618786987
-0.407249862853278
-0.376112470714012
-0.346471203441495
-0.317466710336112
-0.290816233654507
-0.265407021078195
-0.242096233961563
-0.220289494605808
-0.200505483711888
-0.182107376960553
-0.165055841593418
-0.149423643115178
-0.13491205211102
-0.121325926987644
-0.108649041045677
-0.0968756571294984
-0.0855901543079644
-0.0751242833579403
-0.0651084036483547
-0.0557020522001439
-0.0467398369743226
-0.0382605907175742
-0.030269014302219
-0.022695245420574
-0.0156335676346417
-0.00899760680108357
-0.00290478185918327
0.00270045127661044
0.00767204674647316
0.0121106113486305
0.0158041043655947
0.0188321232532474
0.0209225837387918
0.0222571440516918
0.0219315500699871
0.0206959974192344
0.0198958288622253
0.0188452370285376
0.0177609786540551
0.0166669027338651
0.0155998119425951
0.014541093275619
0.0135422855778679
0.0125808897357455
0.0116822580544048
0.0108408480871069
0.0100463244675243
0.00931964514815669
0.00864553026512603
0.00801820919805934
0.00745313330285979
0.00692590789527876
0.00644239339854574
0.00600176046359106
0.00559979168724984
0.00523116985288507
0.0048912050922385
0.00458355904094333
0.00429122680682637
0.00404084490642136
0.00379442277674484
0.00357530112201893
0.00336811941400542
0.00318018753205822
0.00300923317489738
0.00283203374097598
0.0026822209548509
0.00253556703709123
0.00239686069206943
0.00226270013808439
0.00213935887874986
0.00200670531844134
0.00190650870482096
0.00177141583894633
0.00167226255995981
0.00155651663253853
0.001444835088523
0.00133536277977883
0.00122337654403007
0.0011166015361614
0.000991760616424473
0.000881835005930525
0.000764789771084213
0.000643552241464512
0.000489238328894585
0.00040870566539348
0.000135268585482134
0.000139447854687225
0.105928386343307
0.105772382386468
0.106636883410793
0.108279783955507
0.110732574671394
0.114080853095901
0.117842865316017
0.121745629614819
0.125602872044132
0.129215631815796
0.13248547115885
0.135103275234391
0.137181713299612
0.138292159145817
0.138442162973515
0.137478366525456
0.135130144188872
0.131135220273843
0.125263330629579
0.11749509998093
0.106649395525194
0.0934242405009947
0.0758533031946781
0.0545180159547107
0.0258725532531963
-0.00818060225607295
-0.0504663549090878
-0.100751005176692
-0.158046927696985
-0.222086675992723
-0.292016013592941
-0.36501825170206
-0.438816982148439
-0.50883926393043
-0.569826753623174
-0.621926747799598
-0.657969825635736
-0.681540679118604
-0.693075062156856
-0.697752791996484
-0.696051768949868
-0.687945741165558
-0.675267226974552
-0.658358290983605
-0.63805163928018
-0.614270914725781
-0.588890624031348
-0.560501166117541
-0.531656636766721
-0.501189963880326
-0.470227410299886
-0.438266380454164
-0.407456211353341
-0.37634091313015
-0.34671558386595
-0.317718892131096
-0.291069911305435
-0.265659514432732
-0.242342648903357
-0.220526415386422
-0.200730964669761
-0.182323011172924
-0.165258694405672
-0.149613401859054
-0.135090596384924
-0.121492799024132
-0.108803223356533
-0.0970194272214014
-0.0857228255490425
-0.0752455278293615
-0.0652192597334413
-0.0558022597271603
-0.0468299680368236
-0.0383403755220467
-0.0303390163340672
-0.0227557451223792
-0.0156851072220329
-0.00904087309985286
-0.00294059101549402
0.0026711340943984
0.00764788385060088
0.012090079263868
0.0157853384597288
0.0188130291467475
0.0209004407685049
0.0222292322882042
0.0219031562675344
0.0206759622154181
0.0198800375368503
0.018830853985546
0.0177481841507651
0.0166555044642341
0.0155895681211257
0.0145320073437384
0.0135341943325896
0.0125737416621036
0.0116759166965314
0.0108352145180089
0.010041399606863
0.00931529546731358
0.0086416948013433
0.0080148702939211
0.00745016238167923
0.00692329472207213
0.00644011809484087
0.0059997726117713
0.00559803502857792
0.00522962087134887
0.0048898436712336
0.00458236278516056
0.00429022171573619
0.00403991086349746
0.0037936199716935
0.00357458843796043
0.00336751648065691
0.00317963138715744
0.00300870240604259
0.00283162358836046
0.00268184202952255
0.00253522357474657
0.00239655032992147
0.00226242026696109
0.00213910961215324
0.00200651734334343
0.00190625647652752
0.00177128075064862
0.00167207022487281
0.00155636098672714
0.00144468960063224
0.00133523570696805
0.00122324759423315
0.00111645927804079
0.00099169135176388
0.000881750603911299
0.000764654835828989
0.0006434998397202
0.000489097203142645
0.000408691400546227
0.000135079176163948
0.000140931413014281
0.105917864712807
0.105767310865778
0.106637656933671
0.108282122489604
0.11073104180445
0.114070206260328
0.117822423133537
0.121715827699329
0.125564039450081
0.129167028131982
0.132425603586017
0.135030445763038
0.137091036454726
0.138179431089103
0.138301862505044
0.137302441821778
0.134909519242499
0.130861908780155
0.124927601263804
0.11707935163798
0.106148658703512
0.0928133545595619
0.075121452549898
0.0536276298058303
0.0248506917025627
-0.00933897620492539
-0.0517242193121657
-0.102037925034378
-0.159302201967714
-0.223244162198634
-0.292987170047097
-0.365733421407446
-0.439210286272207
-0.508892539367449
-0.569607273697694
-0.621470902404136
-0.657410396685817
-0.680966209162633
-0.692549651791116
-0.697277418216563
-0.695622237308281
-0.68756894454612
-0.674943382174915
-0.65808739577344
-0.637833853613994
-0.614107118498921
-0.588777530552164
-0.560440229128801
-0.531641258779628
-0.501219855023413
-0.470300795043917
-0.438377253876141
-0.407598621347565
-0.376510472865262
-0.346906334913175
-0.317922074570848
-0.291279294251652
-0.265870823754823
-0.242551831394006
-0.220729421937466
-0.200925972387556
-0.182510849286207
-0.165436860195474
-0.149781218544785
-0.135249385652613
-0.121642600751772
-0.108942782557284
-0.0971507551348467
-0.0858453667503705
-0.0753593234439832
-0.0653246912934861
-0.0558995043433786
-0.0469195234750749
-0.038422299407777
-0.0304139620221853
-0.0228241512123993
-0.015747960586877
-0.00909898682660638
-0.0029954688722177
0.00261829970975495
0.00759520685437705
0.0120356787993943
0.0157264803695703
0.0187477327940113
0.0208249832901312
0.022142335181554
0.0218223733040276
0.0206181336304059
0.019832746108156
0.0187884411316184
0.0177114861956256
0.0166232934517188
0.0155610237174684
0.0145069409626838
0.0135120285281359
0.012554246391271
0.0116586569957303
0.010819915668986
0.0100280207120566
0.00930342453896356
0.00863119162229926
0.00800566484562926
0.00744189685568252
0.00691597537739398
0.00643367887511435
0.00599405832425478
0.00559290804491178
0.0052250405031971
0.00488574954637724
0.00457870715383469
0.00428705943039371
0.00403691531890376
0.00379099325641604
0.00357220561463331
0.00336542517290557
0.00317765840522971
0.00300681750736579
0.00283009545527144
0.00268038245853926
0.00253386246510427
0.0023953073872103
0.00226126732339942
0.00213805646486503
0.00200564062851092
0.00190519969304517
0.00177058348622807
0.00167121245851958
0.00155561129002976
0.00144399626402442
0.00133459442875215
0.00122261294149328
0.00111580003511889
0.000991254751919448
0.000881281585493826
0.000764037820482766
0.000643181364554149
0.000488537633403401
0.000408580355039831
0.000134233545059887
0.000145974890210536
0.105892639254788
0.105751375587354
0.106630397793974
0.108276550603289
0.110717776058683
0.114038375263589
0.117770077980954
0.1216432202213
0.125471457980419
0.12905346331293
0.132289009530189
0.13486964624901
0.136899169822747
0.137953055229378
0.138034380776148
0.136984670761499
0.134532194943014
0.130418028304593
0.124406770176736
0.116463173482682
0.105437144055516
0.0919775814366043
0.0741582334320516
0.0525010983035819
0.0236150677565597
-0.0106865176023985
-0.0531163144068489
-0.103382667189919
-0.16052414781292
-0.224256748095246
-0.293681720790895
-0.366031901090979
-0.439038844723128
-0.508256392123036
-0.568617401795107
-0.620194093003936
-0.656063543844686
-0.67967434878631
-0.691404788020584
-0.696261768464519
-0.694720907464926
-0.68678365122724
-0.674263362878389
-0.657505167053362
-0.637343100886335
-0.613705523895235
-0.588453503321435
-0.560196568027011
-0.531463033041196
-0.501105622273224
-0.470246072343639
-0.438376502741028
-0.40764035893698
-0.376590285916181
-0.347016124050601
-0.318053391200497
-0.291423809020156
-0.266023176737199
-0.242708116522265
-0.220885379803515
-0.201078975597389
-0.182660739492336
-0.165582478891974
-0.149921299839501
-0.135383881271571
-0.12177243786472
-0.109066587454648
-0.0972693466866635
-0.0859590367538643
-0.0754686517244677
-0.0654292406626485
-0.0560001435047035
-0.0470170110744275
-0.0385174438861411
-0.0305074822886862
-0.022916872895145
-0.0158413437693196
-0.009194248614231
-0.00309487313996511
0.00251335495405843
0.0074826621888168
0.0119132630858559
0.0155909332923661
0.018597405595895
0.0206556750723513
0.0219536353925452
0.0216461428150239
0.0204818428052438
0.0197174602982084
0.0186861531522896
0.0176227569272287
0.0165452502665807
0.0154918942491169
0.014446016799222
0.0134580089699937
0.0125064880758996
0.0116162069651084
0.0107821224822676
0.009994645349143
0.00927362640784149
0.00860462571661483
0.00798210594294016
0.00742064637641389
0.00689697869128298
0.00641674226776299
0.00597885563165046
0.00557916318762134
0.00521264158272312
0.00487455093346066
0.00456858282243487
0.00427807973613802
0.00402848314347527
0.00378345504362542
0.00356530108670141
0.00335921987249599
0.00317184594457789
0.0030013270879417
0.00282538180696407
0.00267590869243095
0.00252969295466873
0.00239146690703837
0.00225769186260956
0.00213474244375717
0.00200273882358365
0.00190204808823384
0.00176816117078198
0.00166856068729795
0.00155322373908554
0.00144177240749616
0.0013325090535676
0.00122060272565129
0.00111379123433984
0.000989685438577523
0.000879695004185543
0.000762244964918856
0.000641959512958118
0.000486979506013304
0.000407831298849476
0.000132032688020937
0.000154960521672391
0.105852135562502
0.105722092305702
0.106609618391862
0.108255560639084
0.110684683602625
0.113978765878572
0.117681738656151
0.121526665502723
0.125327252391589
0.128880763733975
0.132085397139559
0.134634514215006
0.136624306055656
0.137635932837809
0.137667401946813
0.136557714091873
0.134035627417277
0.1298447682445
0.123745367777643
0.115693970853631
0.104562246547993
0.0909648707808799
0.0730083546725803
0.0511787759207167
0.0221887544728208
-0.0122176068600033
-0.0546676457975339
-0.10484794355332
-0.161815626514568
-0.225270745486867
-0.294290906113834
-0.366144832291158
-0.438568336789505
-0.507209016337146
-0.567119635142786
-0.618325773629764
-0.654097946570944
-0.677773261658428
-0.689697751358831
-0.6947316790014
-0.693355594389258
-0.68558812960566
-0.673220980635683
-0.656604086905379
-0.636572232898641
-0.613060355189113
-0.587914612846579
-0.559768629367247
-0.531122593619339
-0.500850988368787
-0.47006942619314
-0.438272452849048
-0.407591247114508
-0.376592020239113
-0.347056650877623
-0.318124092147418
-0.291513205114032
-0.266125101338482
-0.24281784718901
-0.220998846984643
-0.201193248979702
-0.182774728511664
-0.165696272480744
-0.150034042685594
-0.135494294369988
-0.121882155163093
-0.109174903873914
-0.0973760501286098
-0.086064740194373
-0.0755750265723385
-0.0655347717404406
-0.0561062499142835
-0.0471243919810369
-0.0386273952293795
-0.0306206912184087
-0.023034189672144
-0.0159644888993153
-0.00932447448049642
-0.00323484070177476
0.00236224723881415
0.00731822959892833
0.0117332061178976
0.0153916867901305
0.0183775865563791
0.0204111443554619
0.021685240649872
0.0213913702216223
0.0202730460216238
0.0195354273377238
0.0185230507068299
0.0174793464630693
0.0164178258279254
0.0153781746449941
0.0143448671895538
0.0133676354938221
0.0124258843419712
0.0115440340779676
0.0107174054097131
0.00993691328754834
0.00922171483348215
0.00855797921373397
0.00794031945039851
0.00738276478979447
0.00686283494061665
0.00638600045595414
0.00595103281854969
0.00555385557870567
0.00518964712249287
0.0048536305912851
0.00454952426293875
0.00426091751750526
0.00401244492341519
0.0037689359493455
0.00355193545869097
0.00334705209080687
0.00316047842663987
0.00299065152091003
0.00281593053598401
0.00266698228561075
0.00252136679833957
0.00238375628143833
0.0022504976326045
0.0021280402183055
0.00199670877861135
0.00189584881783716
0.0017630157689212
0.00166324088824565
0.00154835704601486
0.00143722072459956
0.00132822310056864
0.00121650963322383
0.00110979227198399
0.000986318347641582
0.000876377915335021
0.00075875387209463
0.000639284564421694
0.000483940770401184
0.000406044550836507
0.000127924145495695
0.000166550961559299
0.105796710288427
0.10567823645849
0.106572636334709
0.10821533438858
0.110627440682908
0.113887700964454
0.117554513084549
0.121364222444419
0.125130761375136
0.128650108606218
0.13181838124229
0.134331379410612
0.136276228883461
0.13724129454247
0.137218087231479
0.136043083592339
0.133445830379267
0.129172378846485
0.122978064649425
0.114810953837253
0.103566379909277
0.0898217368609383
0.0717206222226652
0.0497120291253361
0.0206188996816716
-0.0138892254899722
-0.0563469953844711
-0.106419891262448
-0.163184312907117
-0.226320966546586
-0.294882194638484
-0.366174326918252
-0.437937920977874
-0.505921280978639
-0.565304616071924
-0.616067238580982
-0.651698454081836
-0.675419413003874
-0.687548052605522
-0.692777408439262
-0.691594019950811
-0.684033614494791
-0.671856795447111
-0.655417885112258
-0.635550773724489
-0.612198422251958
-0.58718645616786
-0.559181082949716
-0.53064465875103
-0.500481513550107
-0.469797346294652
-0.438092294467042
-0.407479410322374
-0.376544920454884
-0.347057187285971
-0.318162523960992
-0.291574080570258
-0.266201334748953
-0.242902619545915
-0.221088024412991
-0.201284202604919
-0.182865434848445
-0.165787254118387
-0.150126001839612
-0.135585326516249
-0.121973688425767
-0.109267714546909
-0.0974694547454972
-0.0861587419567982
-0.0756727144376985
-0.0656338539814718
-0.0562084728156254
-0.0472301578354956
-0.0387382776901071
-0.0307374846002558
-0.0231576314069142
-0.0160965381299916
-0.00946629604792733
-0.00338931092233452
0.00219363535036038
0.0071330099863895
0.0115291223842709
0.0151650084453396
0.0181269848805933
0.0201330295427704
0.0213821303710276
0.0211008631669647
0.0200271151297479
0.0193158180422127
0.0183231588274581
0.0173007827757359
0.0162571010312604
0.0152331445304212
0.0142144082567832
0.0132498935302199
0.0123197823891827
0.0114481415715631
0.0106306435497152
0.00985873009115743
0.00915082322387163
0.00849372441637678
0.00788221221616965
0.00732972981352791
0.00681463459729854
0.00634222001696498
0.00591109984460764
0.0055172892636593
0.00515618356330279
0.00482297187115369
0.00452139514803561
0.00423532063586634
0.00398850993602157
0.00374705980841159
0.0035316918878587
0.00332845568450036
0.00314308214355168
0.00297430940858097
0.00280120305498523
0.00265308352906529
0.00250836123688035
0.00237164812348201
0.0022391630100543
0.00211743013611325
0.00198702016463367
0.00188613466153257
0.00175461685608232
0.00165479383205461
0.00154054119546498
0.00142988322462527
0.00132129202010379
0.0012099092350627
0.00110340332475765
0.000980726776324578
0.000870943745308764
0.000753221137082596
0.000634776728094026
0.000479100875503859
0.000402919023805234
0.000121626528284685
0.000179659530827932
0.105726174528187
0.105619296544137
0.106518950320164
0.108155472645446
0.110545930552432
0.113765573864237
0.117388865440135
0.121156062053728
0.124881662486262
0.128360702636596
0.131487002740313
0.13395934175892
0.135854554267395
0.136769434745346
0.136687935770137
0.135443971015815
0.132768055234931
0.128408452191797
0.122115264619484
0.113827656123302
0.10246609397439
0.0885682941310201
0.0703184091270407
0.0481275877269676
0.0189332567597962
-0.0156729193766569
-0.0581284043620142
-0.108078529012808
-0.164619451904636
-0.227410130793009
-0.295476481332729
-0.366163190945879
-0.437215381583092
-0.504485649708985
-0.563285411457995
-0.6135479183621
-0.64899459166971
-0.672731465426534
-0.685052542710992
-0.690474500352031
-0.689491235464878
-0.682157394751536
-0.670195287246065
-0.653962194698389
-0.634288774363019
-0.611126414410426
-0.586274110852682
-0.558438330498844
-0.530033774509613
-0.500002332369639
-0.469436024414854
-0.437843714692542
-0.407313938096571
-0.376459921522415
-0.347030320854029
-0.318182923648354
-0.291621375022287
-0.26626744489509
-0.242977761734703
-0.221167475154792
-0.201365126388145
-0.1829449371837
-0.165865661037898
-0.150205480631354
-0.135663736520445
-0.122051904030254
-0.109348022222799
-0.0975511564512158
-0.0862410637454386
-0.0757599788693734
-0.0657233864569671
-0.056302320271938
-0.0473284826247992
-0.0388428548694739
-0.0308493083166425
-0.023277384769097
-0.0162264151623441
-0.00960741554899645
-0.00354467204990141
0.00202241723126316
0.00694322209215084
0.0113185274038242
0.0149298816549233
0.0178660267033933
0.0198434131372326
0.0210681033869907
0.0207991887929525
0.0197676763473369
0.0190804164440552
0.0181061150683068
0.01710431582723
0.0160782389725164
0.015070103187277
0.0140662904578064
0.0131149815602639
0.0121970973488666
0.0113363148547207
0.010528628611427
0.00976600065376514
0.00906608913864463
0.00841632077764391
0.00781164311793197
0.00726488795094793
0.0067552659293098
0.00628788549679484
0.00586119412456468
0.00547130064630512
0.00511382033552058
0.0047839126184795
0.00448532843806296
0.00420223853256237
0.00395748773319604
0.00371849242335337
0.00350512016156023
0.00330387381175327
0.00312002007976945
0.00295258974601269
0.00278140202855734
0.00263436833460735
0.00249078279677324
0.00235520200306007
0.00222371114200654
0.00210289961926439
0.00197362635236746
0.00187285705959291
0.00174286308884032
0.00164312744945679
0.00152965889752232
0.00141962891541446
0.00131157507826337
0.00120065568394505
0.00109447482035406
0.000972737330193187
0.000863228578935017
0.000745493406887898
0.000628252915899361
0.000472302419468933
0.000398280430837744
0.000113101936292773
0.000193508620808787
0.105639846610973
0.10554443125966
0.10644772274916
0.108075281935904
0.110439792423389
0.113612598806569
0.117185335463778
0.120902718884793
0.124580164317402
0.128012199699213
0.131090289706787
0.133516839749834
0.135357377083804
0.136218194533295
0.136074761739137
0.134758526166908
0.132001060501907
0.127552611451153
0.121157868871384
0.112746610059857
0.101265739384007
0.0872112368574179
0.0688110395272641
0.0464376778819719
0.0171463193163631
-0.0175518222891821
-0.0599935085379689
-0.10980557223963
-0.166104366108659
-0.228525655963351
-0.296068742227781
-0.36611740595182
-0.436421867368168
-0.502940575641259
-0.561117912700919
-0.61084074491303
-0.646068741004642
-0.669793833092637
-0.682288676486669
-0.687890331618905
-0.687101272067499
-0.679998455010298
-0.66826215657199
-0.652251846921055
-0.632793119188419
-0.609845744971972
-0.585175843424129
-0.557536837662414
-0.529285841094629
-0.499409325969679
-0.468981963366532
-0.437524461148574
-0.407093733060236
-0.376337548292035
-0.346978185705784
-0.318189368687548
-0.291660304334617
-0.266329837406248
-0.24305032719864
-0.221244578486846
-0.201443005072127
-0.183020001673078
-0.165937769247649
-0.150277841836145
-0.135734165149791
-0.122120768617392
-0.109418882720021
-0.0976234986555683
-0.0863134857248822
-0.0758378005884112
-0.0658037112853028
-0.0563875064161777
-0.0474185466658981
-0.0389397213485553
-0.0309541680425791
-0.0233908984600084
-0.0163509857327142
-0.00974414193799933
-0.00369661596503236
0.0018535409395456
0.00675453727553176
0.0111078121260551
0.014693531001148
0.0176027978091545
0.0195513336056487
0.0207530359217794
0.0204969318150297
0.019505798482708
0.0188404729615635
0.0178829467313281
0.0169002714590928
0.0158908192631509
0.0148978673416775
0.0139085988006273
0.0129702937217949
0.0120645803967043
0.0112147058860499
0.0104169599011512
0.00966380628097919
0.00897212241436311
0.00832994505167874
0.00773238743089898
0.00719165468645624
0.00668781293971868
0.0062257746481375
0.00580381865311994
0.00541814536358483
0.0050645862461931
0.00473827690734532
0.00444296052485209
0.0041631351812957
0.00392069723791344
0.00368441234031548
0.00347327339326417
0.00327424473150793
0.00309213365787136
0.00292624591098953
0.0027571867166619
0.00261142526148825
0.00246915542969862
0.00233487859039316
0.00220454914555358
0.00208480374933713
0.00195683377053178
0.0018562952741018
0.00172797978140144
0.00162844675790599
0.00151588288281231
0.00140660138494073
0.00129919204232523
0.00118884950439462
0.00108309060808514
0.000962405034942971
0.000853277505386559
0.00073561571073457
0.000619725121541266
0.000463573668472896
0.000392111288314311
0.000102536095268022
0.00020751356503162
0.105536731861377
0.105452452587514
0.106357675272465
0.107973563164697
0.110308098491896
0.113428397906469
0.11694398729744
0.120604482168026
0.124226523425439
0.127604578469571
0.130627751061606
0.133002754022314
0.134783047525509
0.135585350255623
0.135375905363281
0.133983846014716
0.131141875929918
0.12660197877983
0.120103395560287
0.111566023465206
0.0999643795602872
0.0857509676429292
0.0672005946617436
0.0446464240554069
0.0152640791182433
-0.01951771183831
-0.0619319290332541
-0.111588973901059
-0.16762563151736
-0.229653685463315
-0.296646478673396
-0.366028105126166
-0.435555236962604
-0.501293462548942
-0.558820983235089
-0.60797793027488
-0.64296454795848
-0.666658097350124
-0.67931066846343
-0.685078653821149
-0.684473580626188
-0.677598024772762
-0.666089068916421
-0.650308693874502
-0.631076927789819
-0.608362337262899
-0.583892758031945
-0.556474191090178
-0.528396795403004
-0.498697537033537
-0.468430212087372
-0.437130342141184
-0.406815565844301
-0.376176016154958
-0.346900494577219
-0.318183455415656
-0.291693687826246
-0.266392620929759
-0.243125182531844
-0.221324721976233
-0.201523039825844
-0.183095743669174
-0.166008420973252
-0.150347311052188
-0.135800317777288
-0.122183562960045
-0.109483001886616
-0.0976886852642603
-0.0863778874098163
-0.0759076025173442
-0.0658758739666483
-0.0564646853842175
-0.0475006994707032
-0.03902889709336
-0.0310517402989584
-0.0234975176496862
-0.0164692426899815
-0.00987513518832447
-0.00384343271420921
0.00168909423384916
0.00656948710351625
0.0108999541101119
0.0144594530289337
0.0173413280162707
0.0192614230527611
0.0204420050891297
0.0201994296601477
0.0192471476850226
0.0186021335419287
0.0176600499382504
0.0166949068396217
0.0157008647033773
0.0147221497407317
0.0137467133665387
0.0128208763411597
0.0119269536589858
0.0110877240967098
0.0102997499159466
0.00955597139451644
0.00887247943874805
0.00823790085343492
0.00764750746770448
0.0071128715106503
0.00661490803861821
0.00615832090729157
0.00574122405466001
0.00535990546516509
0.00501040463199467
0.00468784119730698
0.00439592965399373
0.00411951860679051
0.00387953354785662
0.00364610418363871
0.00343733393080784
0.00324065549032409
0.00306042648491515
0.00289620466663751
0.00272940168210236
0.00258503231396504
0.00244419664887469
0.00231133487232146
0.00218228136334206
0.00206369503761607
0.00193714586201954
0.0018369197282235
0.00171038615002675
0.00161114232569144
0.00149956987129125
0.00139112395857752
0.00128443793647477
0.00117476130580547
0.00106949945563061
0.000949948339284126
0.000841291052402684
0.000723783587346795
0.000609352828421792
0.000453090840058427
0.000384517814963293
9.02892745442907e-05
0.000221213503215077
0.105415592483401
0.105341932926956
0.106247262115254
0.107848806238357
0.110149543259214
0.11321212587349
0.116664389356886
0.120261199849256
0.123820689808866
0.127137696417048
0.130098963491477
0.132416143696229
0.134130136846996
0.134868790936482
0.134588707788583
0.133116744336138
0.130186924272231
0.12555267681006
0.118947893077184
0.110282110765451
0.098558512957964
0.0841847015385065
0.0654852821929884
0.0427534003253177
0.0132874030585067
-0.0215680296186687
-0.0639393387645204
-0.113422780324967
-0.169175547530447
-0.230785011812662
-0.297199738678455
-0.365885707144189
-0.434607950037135
-0.499540732338598
-0.556396752464158
-0.604969322524469
-0.639700096224197
-0.663349826151397
-0.67614971104569
-0.682074772883511
-0.681645134538149
-0.674991202324803
-0.663706895146065
-0.648157579930114
-0.629158211344784
-0.606687254767075
-0.582430445070493
-0.555251100842563
-0.527364583431323
-0.497862919557546
-0.46777589481215
-0.436656542320565
-0.406475264116869
-0.375972322153771
-0.346795661424349
-0.318165487216981
-0.291723221044628
-0.266458991133248
-0.243206503384655
-0.221412849826511
-0.201610188187329
-0.183177147343157
-0.166082410644589
-0.150418156937561
-0.135865979218373
-0.12224365524615
-0.109543240779728
-0.0977490943425402
-0.0864363459665688
-0.0759710824662694
-0.0659412895674062
-0.0565349513605727
-0.0475758102025179
-0.0391110279663032
-0.0311424482907756
-0.0235974602611415
-0.0165811842756511
-0.010000202985184
-0.00398471579120058
0.00152968691535462
0.00638894113907883
0.0106960807716162
0.0142290945204424
0.0170833891770178
0.018975847732983
0.0201374102162486
0.0199091966063696
0.0189945205131898
0.0183687197577016
0.0174411544957301
0.0164920631548305
0.015512229161324
0.0145467181309247
0.0135842695141124
0.0126702101607641
0.0117875348514562
0.0109585209797019
0.0101799863596391
0.00944531897484226
0.00876982702119482
0.00814270447594033
0.00755937280813071
0.00703077212194321
0.00653865374262944
0.00608749973350045
0.00567526747994365
0.00529832739448354
0.00495291588568846
0.00463414629123763
0.00434568135105629
0.00407274304053419
0.00383527054446012
0.00360476196844938
0.0033984206369473
0.00320415386382436
0.00302588274954881
0.00286339086163718
0.00269890778430075
0.00255599688918291
0.00241666473999033
0.00228527921869825
0.00215757207418014
0.002040193839877
0.00191514081609801
0.00181527819571944
0.00169058636603719
0.00159169058184617
0.00148116563706909
0.00137361147462677
0.0012677007503924
0.00115875511889505
0.00105404353047632
0.000935681830052116
0.000827564036104425
0.000710285603076953
0.000597388713747948
0.000441127528791975
0.000375684046411015
7.68366462071196e-05
0.00023422806048638
0.105274972492081
0.105211246174413
0.106114723387903
0.107699244105507
0.109962494625321
0.112962510171953
0.116345616341764
0.119872215419154
0.123362162141535
0.126611070434741
0.129503316179558
0.131756038387754
0.133397289807955
0.134066566340073
0.133710627578307
0.132154109013387
0.129132554102663
0.124400565897063
0.117686897576327
0.10889028826957
0.0970435155517118
0.0825081804536884
0.0636614293031423
0.0407558941300982
0.011214486276002
-0.0237032752052043
-0.0660148558352847
-0.115304786571791
-0.170750406844784
-0.231914482058504
-0.29772232213997
-0.365683536734227
-0.433573767253702
-0.497677523925812
-0.553842813296593
-0.60181622812911
-0.636281105650856
-0.659879298592167
-0.672820676674243
-0.67889822438074
-0.678639448692363
-0.672203313878592
-0.661140717018035
-0.645821341316137
-0.627055959391026
-0.604834471125838
-0.580798236482301
-0.553871789310664
-0.526190065381356
-0.496903401315024
-0.467015205112178
-0.436098413873277
-0.406068329397756
-0.375722643644107
-0.346661074229119
-0.318134620031859
-0.291749559390699
-0.266531275194648
-0.243297855716513
-0.221513586683221
-0.201709328749985
-0.183269313901305
-0.166164799128393
-0.150494998281247
-0.135935336538748
-0.122304840879608
-0.109602908927146
-0.0978075529830375
-0.0864914067759747
-0.0760304221715215
-0.0660019167661348
-0.056599985614939
-0.047645391186883
-0.0391874755252595
-0.0312275176860965
-0.0236918444744219
-0.0166878081577201
-0.0101202622750261
-0.00412128315208506
0.0013745768014756
0.00621228696403357
0.0104957029042614
0.0140021509337825
0.0168288647274299
0.0186947535959408
0.0198395025999587
0.0196265688150705
0.0187485611468665
0.0181414280756517
0.017227970272513
0.0162937382568795
0.0153271065107687
0.0143738519880397
0.0134235688977911
0.0125205782914079
0.0116485644450153
0.0108292775672547
0.0100597817150695
0.00933388356277764
0.00866612089056558
0.00804623125270094
0.00746977646075586
0.00694707116195948
0.00646068643552799
0.00601486954301904
0.00560743339825641
0.00523482516332663
0.00489346513749299
0.004578471620058
0.00429343124456434
0.00402396188083254
0.00378900642787019
0.00356142800965072
0.00335752268910086
0.00316567810897611
0.00298939443792235