/*--------------------------------*- C++ -*----------------------------------*\
| =========                 |                                                 |
| \\      /  F ield         | OpenFOAM: The Open Source CFD Toolbox           |
|  \\    /   O peration     | Version:  v2006                                 |
|   \\  /    A nd           | Website:  www.openfoam.com                      |
|    \\/     M anipulation  |                                                 |
\*---------------------------------------------------------------------------*/
FoamFile
{
    version     2.0;
    format      ascii;
    class       volVectorField;
    location    "0";
    object      wallShearStress;
}
// * * * * * * * * * * * * * * * * * * * * * * * * * * * * * * * * * * * * * //

dimensions      [0 2 -2 0 0 0 0];


internalField   uniform (0 0 0);

boundaryField
{
    bottomWall
    {
        type            calculated;
        value           nonuniform List<vector> 
140
(
(-0.00215304349017811 -2.2986493461502e-06 0)
(-0.00210234136514145 -4.18111706722205e-06 0)
(-0.00200876189108308 -4.68266934079496e-06 0)
(-0.00189629049839483 -5.16521097024689e-06 0)
(-0.00176597856433179 -7.02662810297655e-06 8.77715685863143e-39)
(-0.00164336883169155 -1.15089140547775e-05 0)
(-0.00154992285176517 -1.92466700799288e-05 6.42469696963552e-21)
(-0.00148592395329497 -3.02311104901112e-05 3.67341984631965e-40)
(-0.00145102090492348 -4.44382140495855e-05 -2.93873587705572e-39)
(-0.00144268081717011 -6.22705009051047e-05 -2.85380053292061e-20)
(-0.00146703693060137 -8.47591487877533e-05 1.17549435082229e-38)
(-0.00151462423805799 -0.000112444382323783 5.94599235044683e-20)
(-0.00159311228887047 -0.000147295693680666 -5.89366241313401e-23)
(-0.00170147129359145 -0.000190681791114831 1.17596464958634e-22)
(-0.0018321968893022 -0.000243630226395069 1.20075333459622e-19)
(-0.00199167674050158 -0.00030868986760537 -1.18534639457285e-19)
(-0.00218441706905773 -0.000388679739380867 -1.15927762183879e-19)
(-0.00240905439783587 -0.000485062378895558 -1.1187352302637e-19)
(-0.00265508670473154 -0.000598230280302706 -1.06382416663041e-19)
(-0.00295524926320043 -0.000737222253703467 -1.98717347989918e-19)
(-0.00328256605908834 -0.000896451994610893 1.79966316654484e-19)
(-0.00367073857902972 -0.00108903737811157 8.70544657378649e-24)
(-0.00410917182566619 -0.00131027525089218 1.27804137496802e-19)
(-0.00466575206085846 -0.001585764014159 9.21118186761866e-20)
(-0.00529233275473886 -0.0018856848662009 1.04759421727345e-24)
(-0.00599231869736609 -0.00221561417478894 -1.18510935341528e-20)
(-0.00678319284933273 -0.00255617637772868 2.82118644197349e-37)
(-0.0075987075727523 -0.00287092212525463 1.66277941784868e-19)
(-0.00841758005580519 -0.00313692625713645 -2.63704993101083e-19)
(-0.00923491739168528 -0.00333450857331112 -3.73106214250453e-19)
(-0.0099915779020166 -0.00342971336690811 -1.3529000999216e-22)
(-0.0106370028717704 -0.00340403800201605 6.21579895442711e-19)
(-0.0110977834565367 -0.00323510211282532 1.20370621524202e-35)
(-0.011266899670537 -0.00292121106891488 0)
(-0.0111892496580094 -0.00251432557013447 0)
(-0.0107880582397375 -0.00203033886454524 9.18354961579912e-41)
(-0.0101328709112208 -0.00154657760403878 -2.92117919232344e-22)
(-0.00937945905475258 -0.00110868024372074 -7.55874792889e-24)
(-0.00866606877242821 -0.000747729229791616 3.0645762749593e-22)
(-0.00804053225389279 -0.000450607841149021 -4.59177480789956e-41)
(-0.00742519400461965 -0.000204042069179977 -3.06198522014075e-22)
(-0.00683296160101221 -3.43907382062442e-06 5.04226783515088e-24)
(-0.00627156661371939 0.000157977447219013 -7.86622829699844e-20)
(-0.00572578839821551 0.000284662136004862 -1.54613068139861e-19)
(-0.00517807689824187 0.000379493249627168 3.00802002917517e-19)
(-0.00465796359333629 0.000446224146758148 2.90335139592344e-19)
(-0.00412926884975717 0.000486599478218007 -2.78968317213776e-19)
(-0.00362221889315538 0.000503566063647715 5.33685649254322e-19)
(-0.00313266291985302 0.000501297361510373 -9.4039548065783e-38)
(-0.00263790856210439 0.000478612109101189 -9.4039548065783e-38)
(-0.0021428957786334 0.000437136653386763 4.5320585292664e-19)
(-0.00169812924456665 0.000386623619510166 4.23706006455767e-19)
(-0.00127291419971086 0.000325115528723089 2.00674934421617e-22)
(-0.000874611552843408 0.000257021495438818 -7.35420055134951e-19)
(-0.000515899588177072 0.000185940238160491 -3.40892448547616e-19)
(-0.000225981487854714 0.000122535435066577 3.14399969572151e-19)
(1.13334407752349e-05 6.43969805077757e-05 -2.94155101999263e-22)
(0.000210843059083928 1.29314609865179e-05 1.05010937561325e-18)
(0.000361200147426346 -2.92180059731073e-05 -2.44018427566703e-22)
(0.000464678385412717 -5.96967731297553e-05 -4.32527984141496e-19)
(0.000538760935314692 -8.38461748835344e-05 1.35222645401253e-22)
(0.000602773164881429 -0.000103622553313816 -1.6536569479958e-22)
(0.000627976235234189 -0.000112414187742793 3.21542942791629e-19)
(0.000636501342212852 -0.000116950443858636 2.84031115181682e-22)
(0.000643592188921886 -0.000119734341798648 -1.34616893359097e-22)
(0.000634706005511625 -0.000116908538345765 1.56274812778401e-23)
(0.000608512467812567 -0.000109837210452177 1.04983250687536e-19)
(0.000587543202450646 -0.00010368107609527 5.74104521506834e-23)
(0.000550171835758669 -9.2420072081526e-05 8.27180382370835e-20)
(0.000506231088361744 -8.09152477548479e-05 -1.45076834928464e-19)
(0.000459620217075242 -6.85137102320571e-05 6.27970025774735e-20)
(0.000405104230240739 -5.54894291929784e-05 -2.58709481511973e-23)
(0.000346333003283994 -4.21897708409225e-05 -8.04101544410189e-23)
(0.000276780086733897 -2.82908819379359e-05 8.06142060368982e-23)
(0.000203290418217799 -1.53453253994481e-05 -2.95484100517141e-20)
(0.000120456180190162 -2.6025955232844e-06 2.22549735137437e-20)
(3.12783144607383e-05 8.71787855271939e-06 1.53286508873297e-20)
(-6.71688464930692e-05 1.89781417839306e-05 1.21603511048229e-23)
(-0.00017452559325361 2.73227607580549e-05 1.12606668652966e-23)
(-0.000293629214120239 3.39386127130979e-05 -1.28511436436226e-21)
(-0.000419824113466135 3.77461068003517e-05 -2.79103282902496e-23)
(-0.000558538543358239 3.91376080914777e-05 5.68788718619287e-21)
(-0.000708412301302221 3.72301979183239e-05 3.61859393751479e-21)
(-0.000874920377490664 3.24511254435333e-05 -4.29086532276086e-21)
(-0.00105126196305069 2.38061205826579e-05 -2.30875423134247e-21)
(-0.00126979648342051 1.26779337601245e-05 6.11967495921642e-22)
(-0.00149555901291426 4.04892175740795e-06 4.53750632039922e-23)
(-0.00163483331120876 2.01959441604261e-06 -7.86262427612801e-23)
(-0.00172719510864499 2.15608257712061e-06 1.54421055858537e-24)
(-0.0018110330935974 2.00747871660827e-06 3.26661987523128e-23)
(-0.00188045716848496 1.81181634560862e-06 -2.84712453476848e-23)
(-0.00193808939738737 1.65294619930286e-06 2.83687542974721e-23)
(-0.00198762082478821 1.46876831860509e-06 -1.27805430209995e-23)
(-0.00202929331478401 1.32018508690806e-06 1.23487871779295e-23)
(-0.00206458209439305 1.17239713150373e-06 3.00720402067186e-41)
(-0.00209443967567969 1.05688788113625e-06 9.90182903086157e-24)
(-0.00211948907016861 9.36740453389979e-07 -7.09066507603492e-25)
(-0.00214124310827106 8.14837454259506e-07 -6.65772148812579e-25)
(-0.00215934864337982 7.37305154255993e-07 -6.18436036424685e-25)
(-0.00217451147440791 6.59366991341145e-07 -1.42175522136436e-23)
(-0.00218777787889819 5.88690033941523e-07 7.29210199109982e-24)
(-0.00219858855521064 5.45217930772198e-07 -2.36188856161948e-41)
(-0.0022079338451167 4.84190919199624e-07 -1.5109054770209e-24)
(-0.00221616909174328 4.3011046050545e-07 1.70608088031546e-43)
(-0.00222298233789444 3.95851248423897e-07 -9.76652480941985e-42)
(-0.00222866777290333 3.72762168837843e-07 1.21529567232465e-24)
(-0.00223359267223463 3.43014634156891e-07 2.26731976707531e-24)
(-0.00223796666377366 3.14834778127254e-07 3.15292154473084e-45)
(-0.00224159458482668 2.88700220924201e-07 -1.43714192741917e-40)
(-0.00224504633072468 2.68812487914663e-07 9.27457968508621e-25)
(-0.00224738938078923 2.79107998535428e-07 -1.73635488274344e-24)
(-0.0022497886150016 2.57388490914818e-07 1.63495326709283e-24)
(-0.00225196226787813 2.48500822362168e-07 1.53512051906212e-24)
(-0.00225376464855462 2.38083424365501e-07 1.44637492985678e-24)
(-0.00225525968304671 2.47303405636796e-07 -2.64904923725144e-24)
(-0.002256354042136 2.4078882424397e-07 2.64889273033857e-24)
(-0.00225810761011598 2.09491850142659e-07 1.18139004607084e-24)
(-0.00225917761143897 2.20641250331876e-07 2.19459142002913e-24)
(-0.00225990957356166 2.27462616638115e-07 -1.17515628004863e-24)
(-0.00226084067429591 2.24795168338325e-07 -5.77102119100954e-26)
(-0.00226174580099604 2.21247611648406e-07 9.14227166011417e-25)
(-0.00226237712604031 2.16606371563428e-07 -2.72271344161096e-24)
(-0.00226343131111227 2.13876358185885e-07 9.15178226457692e-25)
(-0.00226342818959313 2.37939898172632e-07 -2.00878840759147e-29)
(-0.00226457015919696 2.04541535290694e-07 -1.54207974375965e-24)
(-0.00226499431796818 2.28633623698986e-07 6.96352228398232e-25)
(-0.0022653407128527 2.17883741178067e-07 -6.96369581191415e-25)
(-0.00226617099292779 2.10895118690126e-07 6.29465959940778e-25)
(-0.00226669020800692 2.04861580600276e-07 -2.21186275639298e-26)
(-0.00226726352187779 2.06701081452086e-07 -2.2153002498956e-26)
(-0.00226768105671124 2.02592404201813e-07 -7.31289104490105e-25)
(-0.002268754844121 1.79358435540481e-07 2.36569451589882e-25)
(-0.00226931978021708 1.94852496737853e-07 -2.80259692864963e-45)
(-0.00226969283324151 2.20840529326363e-07 -1.6645348015395e-25)
(-0.00227053037080592 1.81300855243614e-07 1.18491763959481e-26)
(-0.00227256543212356 2.32666022311987e-07 3.17458888400662e-25)
(-0.00227171880535049 1.56144973866115e-07 9.51003263993793e-26)
(-0.00227755983899745 3.96300869929565e-07 2.10690465177946e-25)
(-0.00227416518632556 -1.73477137969389e-07 -2.36777970997532e-26)
(-0.00227791316703665 1.83805637207388e-06 4.49595814981595e-25)
)
;
    }
    topWall
    {
        type            calculated;
        value           nonuniform List<vector> 
140
(
(-0.00219701249144942 -4.95529122844354e-07 0)
(-0.00223024556289815 -9.51784287602677e-07 0)
(-0.00227569303017924 -1.09311997772551e-06 0)
(-0.00232800656609144 -1.23537462024129e-06 0)
(-0.00238742374315693 -1.3639627673997e-06 0)
(-0.00245294261205614 -1.48073998992583e-06 0)
(-0.00252430439656738 -1.59827781224297e-06 0)
(-0.00260156883375385 -1.71850616181879e-06 0)
(-0.00268485947696426 -1.84294177650248e-06 0)
(-0.00277437880526906 -1.97246050208264e-06 0)
(-0.00287035550735038 -2.10699806403502e-06 0)
(-0.00297301290203927 -2.24603852197419e-06 0)
(-0.00308254972783708 -2.3886330928051e-06 0)
(-0.00319911986865061 -2.53338904115722e-06 0)
(-0.00332281245247908 -2.6784564028177e-06 0)
(-0.00345363090794184 -2.82148349442278e-06 0)
(-0.00359147001381438 -2.95956579849132e-06 0)
(-0.00373609073752636 -3.08919523902385e-06 0)
(-0.00388709296634735 -3.20621967200133e-06 0)
(-0.00404388654305022 -3.30582124065885e-06 0)
(-0.00420566161844333 -3.38253077076427e-06 0)
(-0.00437135978515152 -3.43028819617675e-06 0)
(-0.00453964819468272 -3.44257142851543e-06 0)
(-0.00470889947428526 -3.41260287803079e-06 0)
(-0.00487718090106264 -3.33365159665581e-06 0)
(-0.0050422567755491 -3.19943092625781e-06 0)
(-0.00520160799427298 -3.00458788713448e-06 0)
(-0.00535247257159795 -2.74526121995184e-06 0)
(-0.00549190976263389 -2.41966579974238e-06 0)
(-0.00561688878088046 -2.02864512081003e-06 0)
(-0.00572440046394773 -1.57611499409057e-06 0)
(-0.0058115876087032 -1.069315052632e-06 0)
(-0.00587588499031117 -5.1880174103264e-07 0)
(-0.0059151615696861 6.17595735885096e-08 0)
(-0.00592785346658624 6.55711122572368e-07 0)
(-0.00591306467389198 1.24117274488027e-06 0)
(-0.00587099942723451 1.80161287866259e-06 0)
(-0.00580229997518272 2.3267472511406e-06 0)
(-0.0057081814706347 2.80297540822521e-06 0)
(-0.00559044934910143 3.21868174409959e-06 0)
(-0.00545142708395648 3.565921220418e-06 0)
(-0.00529381892784199 3.84064330709795e-06 0)
(-0.00512056669616166 4.04215970633912e-06 0)
(-0.00493472463690697 4.17248993646029e-06 0)
(-0.00473935629063595 4.23588213412798e-06 0)
(-0.00453743657717269 4.23852537722388e-06 0)
(-0.00433177384897226 4.18757039327928e-06 0)
(-0.00412496325108183 4.09060522531786e-06 0)
(-0.00391935378264 3.95535010142495e-06 0)
(-0.00371702730367342 3.7892917474038e-06 0)
(-0.00351978998343685 3.59945306649998e-06 0)
(-0.00332917147796934 3.39226955578431e-06 0)
(-0.00314642970585285 3.17351289531116e-06 0)
(-0.00297256053407296 2.94825457666218e-06 0)
(-0.00280831168152979 2.72085992426505e-06 0)
(-0.00265420041988364 2.4949997190358e-06 0)
(-0.00251053461943555 2.27367715357617e-06 0)
(-0.00237743645375981 2.05926636737406e-06 0)
(-0.00225486788297923 1.8535619813206e-06 0)
(-0.00214265686565822 1.65783782163038e-06 0)
(-0.00204052322408866 1.47291263814723e-06 0)
(-0.0019481031861286 1.29921936378866e-06 0)
(-0.00186497184610715 1.13687457167488e-06 0)
(-0.00179066300044178 9.85745758852162e-07 0)
(-0.00172468606122613 8.45513111214491e-07 0)
(-0.00166653999741536 7.15724151671791e-07 0)
(-0.00161572441037627 5.95840858916198e-07 0)
(-0.0015717479443587 4.85278919791211e-07 0)
(-0.00153413435457189 3.83438544604112e-07 0)
(-0.00150242657109843 2.89728814274346e-07 0)
(-0.00147618908156963 2.03585624168346e-07 0)
(-0.00145500897034374 1.24484062292016e-07 0)
(-0.00143849592854532 5.19463205020547e-08 0)
(-0.00142628147828998 -1.44541150266337e-08 0)
(-0.0014180177059447 -7.5091264845073e-08 0)
(-0.00141337554668547 -1.30293225002697e-07 0)
(-0.00141204369528823 -1.8034234053071e-07 0)
(-0.0014137250012409 -2.25423864152429e-07 0)
(-0.00141813193381497 -2.66104651160264e-07 0)
(-0.00142503099107938 -3.02546397352625e-07 0)
(-0.00143416319774121 -3.34553038453581e-07 0)
(-0.00144528719341744 -3.6227510357421e-07 0)
(-0.00145815185716977 -3.8570151754738e-07 0)
(-0.00147251312369959 -4.04932434529483e-07 0)
(-0.0014881402042417 -4.20206534361016e-07 0)
(-0.00150481833314047 -4.31794846829308e-07 0)
(-0.00152234742923018 -4.39947204112863e-07 0)
(-0.0015405410719646 -4.44909734584588e-07 0)
(-0.00155922652784831 -4.46936994584087e-07 0)
(-0.00157824504430332 -4.4629313355328e-07 0)
(-0.0015974521532925 -4.43250090086175e-07 0)
(-0.00161671778314858 -4.3808151833654e-07 0)
(-0.00163592616297174 -4.31059313465458e-07 0)
(-0.00165497555035908 -4.22448441185207e-07 0)
(-0.00167377775491565 -4.12503410416871e-07 0)
(-0.00169225751949189 -4.01464959732258e-07 0)
(-0.0017103517617727 -3.89557440212138e-07 0)
(-0.00172800871718286 -3.76987059993029e-07 0)
(-0.0017451870145275 -3.6394074110108e-07 0)
(-0.00176185471265352 -3.50585644843762e-07 0)
(-0.00177798832661791 -3.37069248706259e-07 0)
(-0.00179357186691289 -3.23519890500827e-07 0)
(-0.00180859591080323 -3.10047652048971e-07 0)
(-0.00182305671992996 -2.96745507330785e-07 0)
(-0.00183695541529459 -2.83690647367834e-07 0)
(-0.00185029721598869 -2.70945890027475e-07 0)
(-0.0018630907453316 -2.58561136326086e-07 0)
(-0.0018753474055676 -2.46574809668222e-07 0)
(-0.00188708082023778 -2.35015254055856e-07 0)
(-0.00189830634181247 -2.23902047102662e-07 0)
(-0.00190904062037919 -2.13247233984343e-07 0)
(-0.00191930123110001 -2.0305645922647e-07 0)
(-0.00192910635182743 -1.93329983038137e-07 0)
(-0.00193847449453952 -1.84063644648345e-07 0)
(-0.00194742426966304 -1.75249591370436e-07 0)
(-0.00195597420880116 -1.66877181416885e-07 0)
(-0.00196414258464081 -1.58933293928997e-07 0)
(-0.00197194733375063 -1.51403516918737e-07 0)
(-0.00197940586630803 -1.44271433120927e-07 0)
(-0.00198653517150707 -1.37521374783019e-07 0)
(-0.00199335141617902 -1.31134302271734e-07 0)
(-0.00199987058802103 -1.25096905180318e-07 0)
(-0.00200610716459509 -1.19384939710438e-07 0)
(-0.00201207666998381 -1.13996544976507e-07 0)
(-0.00201779072107751 -1.08888568444957e-07 0)
(-0.00202326674361987 -1.0410136094301e-07 0)
(-0.00202850917228496 -9.9517729969333e-08 0)
(-0.00203354632712679 -9.533322528873e-08 0)
(-0.00203835870239029 -9.11448477708168e-08 0)
(-0.00204301968582805 -8.77269117779681e-08 0)
(-0.00204742050985105 -8.35853844648946e-08 0)
(-0.0020518115170246 -8.16707323310773e-08 0)
(-0.00205573800559067 -7.6340875075398e-08 0)
(-0.00206014561608977 -7.87724930454371e-08 0)
(-0.00206320998867924 -6.74992974385489e-08 0)
(-0.00206864858937099 -8.53320735415813e-08 0)
(-0.0020691406414353 -4.68754777081058e-08 0)
(-0.00207931789567917 -1.37520400121185e-07 0)
(-0.00207180549873637 1.32907018717247e-07 0)
(-0.00208790402838727 -4.82601013821948e-07 0)
)
;
    }
    inlet
    {
        type            calculated;
        value           uniform (0 0 0);
    }
    outlet
    {
        type            calculated;
        value           uniform (0 0 0);
    }
    frontAndBack
    {
        type            empty;
    }
}


// ************************************************************************* //
